 Entering Gaussian System, Link 0=gdv
 Input=cda.gjf
 Output=cda.log
 Initial command:
 /home/foresman/gdv/l1.exe /tmp/Gau-23920.inp -scrdir=/tmp/
 Default is to use a total of   8 processors:
                                8 via shared-memory
                                1 via Linda
 Entering Link 1 = /home/foresman/gdv/l1.exe PID=     23921.
  
 Copyright (c) 1988,1990,1992,1993,1995,1998,2003,2009,2011,
            Gaussian, Inc.  All Rights Reserved.
  
 This is the private, development version of
 the Gaussian(R) DV system of programs. It is based on
 the Gaussian(R) 09 system (copyright 2009, Gaussian, Inc.),
 the Gaussian(R) 03 system (copyright 2003, Gaussian, Inc.),
 the Gaussian(R) 98 system (copyright 1998, Gaussian, Inc.),
 the Gaussian(R) 94 system (copyright 1995, Gaussian, Inc.),
 the Gaussian 92(TM) system (copyright 1992, Gaussian, Inc.),
 the Gaussian 90(TM) system (copyright 1990, Gaussian, Inc.),
 the Gaussian 88(TM) system (copyright 1988, Gaussian, Inc.),
 the Gaussian 86(TM) system (copyright 1986, Carnegie Mellon
 University), and the Gaussian 82(TM) system (copyright 1983,
 Carnegie Mellon University). Gaussian is a federally registered
 trademark of Gaussian, Inc.
  
 This software contains proprietary and confidential information,
 including trade secrets, belonging to Gaussian, Inc.
  
 This software is provided under written license and may be
 used, copied, transmitted, or stored only in accord with that
 written license.
  
 The following legend is applicable only to US Government
 contracts under FAR:
  
                    RESTRICTED RIGHTS LEGEND
  
 Use, reproduction and disclosure by the US Government is
 subject to restrictions as set forth in subparagraphs (a)
 and (c) of the Commercial Computer Software - Restricted
 Rights clause in FAR 52.227-19.
  
 Gaussian, Inc.
 340 Quinnipiac St., Bldg. 40, Wallingford CT 06492
  
  
 ---------------------------------------------------------------
 Warning -- This program may not be used in any manner that
 competes with the business of Gaussian, Inc. or will provide
 assistance to any competitor of Gaussian, Inc.  The licensee
 of this program is prohibited from giving any competitor of
 Gaussian, Inc. access to this program.  By using this program,
 the user acknowledges that Gaussian, Inc. is engaged in the
 business of creating and licensing software in the field of
 computational chemistry and represents and warrants to the
 licensee that it is not a competitor of Gaussian, Inc. and that
 it will not use this program in any manner prohibited above.
 ---------------------------------------------------------------
  

 Cite this work as:
 Gaussian Development Version, Revision H.13,
 M. J. Frisch, G. W. Trucks, H. B. Schlegel, G. E. Scuseria, 
 M. A. Robb, J. R. Cheeseman, G. Scalmani, V. Barone, B. Mennucci, 
 G. A. Petersson, H. Nakatsuji, M. Caricato, X. Li, H. P. Hratchian, 
 A. F. Izmaylov, J. Bloino, G. Zheng, J. L. Sonnenberg, W. Liang, 
 M. Hada, M. Ehara, K. Toyota, R. Fukuda, J. Hasegawa, M. Ishida, 
 T. Nakajima, Y. Honda, O. Kitao, H. Nakai, T. Vreven, 
 J. A. Montgomery, Jr., J. E. Peralta, F. Ogliaro, M. Bearpark, 
 J. J. Heyd, E. Brothers, K. N. Kudin, V. N. Staroverov, T. Keith, 
 R. Kobayashi, J. Normand, K. Raghavachari, A. Rendell, J. C. Burant, 
 S. S. Iyengar, J. Tomasi, M. Cossi, N. Rega, J. M. Millam, M. Klene, 
 J. E. Knox, J. B. Cross, V. Bakken, C. Adamo, J. Jaramillo, 
 R. Gomperts, R. E. Stratmann, O. Yazyev, A. J. Austin, R. Cammi, 
 C. Pomelli, J. W. Ochterski, R. L. Martin, K. Morokuma, 
 V. G. Zakrzewski, G. A. Voth, P. Salvador, J. J. Dannenberg, 
 S. Dapprich, P. V. Parandekar, N. J. Mayhall, A. D. Daniels, 
 O. Farkas, J. B. Foresman, J. V. Ortiz, J. Cioslowski, 
 and D. J. Fox, Gaussian, Inc., Wallingford CT, 2010.
 
 ******************************************
 Gaussian DV:  EM64L-GDVRevH.13 30-Sep-2011
                19-Oct-2011 
 ******************************************
 %chk=cda
 %nprocshared=8
 Will use up to    8 processors via shared memory.
 Default route:  maxdisk=400GB
 ------------------------------------
 #p B3LYP/3-21G freq=vcd Geom=Connect
 ------------------------------------
 1/10=4,30=1,38=1,57=2/1,3;
 2/12=2,17=6,18=5,40=1/2;
 3/5=5,11=2,16=1,25=1,30=1,36=2,71=2,74=-5,140=1/1,2,3;
 4//1;
 5/5=2,38=5,98=1/2;
 8/6=4,10=90,11=11/1;
 10/15=4,46=1/2;
 11/6=1,8=1,9=11,15=111,16=1/1,2,10;
 10/6=1,46=1/2;
 6/7=2,8=2,9=2,10=2,18=1,28=1/1;
 7/8=1,10=1,25=1/1,2,3,16;
 1/10=4,30=1/3;
 99//99;
 Leave Link    1 at Wed Oct 19 22:44:40 2011, MaxMem=          0 cpu:       0.4
 (Enter /home/foresman/gdv/l101.exe)
 ---------------
 1 -22.654 0.000
 ---------------
 Charge =  0 Multiplicity = 1
 Symbolic Z-Matrix:
 C                     2.36294   0.69305   0.09577 
 C                     2.71493   1.17601  -1.31959 
 C                     2.39896   1.83852   1.11954 
 C                     3.24777  -0.48143   0.53045 
 O                     0.9949    0.07095   0.08804 
 C                    -0.09397   0.84855  -0.27244 
 O                    -0.06469   2.04872  -0.58583 
 N                    -1.22602   0.09485  -0.23211 
 C                    -2.55696   0.71131  -0.46757 
 C                    -3.52992  -0.39515   0.01582 
 C                    -2.73264  -1.70485  -0.20446 
 C                    -1.30165  -1.31445   0.21924 
 O                    -2.77778  -2.12975  -1.59929 
 H                    -2.30392  -1.42905  -2.12508 
 H                     3.73596   1.57136  -1.32885 
 H                     2.65308   0.33865  -2.02262 
 H                     2.01224   1.95469  -1.61884 
 H                     3.41281   2.24839   1.17575 
 H                     1.69976   2.61785   0.81398 
 H                     2.11442   1.46091   2.1073 
 H                     4.29317  -0.16146   0.58304 
 H                     2.93021  -0.8403    1.51394 
 H                     3.15696  -1.30093  -0.18866 
 H                    -2.69403   0.93523  -1.53175 
 H                    -2.64918   1.64549   0.09123 
 H                    -3.74289  -0.2677    1.08193 
 H                    -4.46423  -0.41185  -0.54723 
 H                    -3.12605  -2.54282   0.37125 
 H                    -0.55413  -1.92825  -0.28409 
 H                    -1.16456  -1.39193   1.30443 
 
 NAtoms=     30 NQM=        0 NQMF=       0 NMMI=     30 NMMIF=      0
                NMic=       0 NMicF=      0.
                    Isotopes and Nuclear Properties:
 (Nuclear quadrupole moments (NQMom) in fm**2, nuclear magnetic moments (NMagM)
  in nuclear magnetons)

  Atom         1           2           3           4           5           6           7           8           9          10
 IAtWgt=          12          12          12          12          16          12          16          14          12          12
 AtmWgt=  12.0000000  12.0000000  12.0000000  12.0000000  15.9949146  12.0000000  15.9949146  14.0030740  12.0000000  12.0000000
 NucSpn=           0           0           0           0           0           0           0           2           0           0
 AtZEff=   0.0000000   0.0000000   0.0000000   0.0000000   0.0000000   0.0000000   0.0000000   0.0000000   0.0000000   0.0000000
 NQMom=    0.0000000   0.0000000   0.0000000   0.0000000   0.0000000   0.0000000   0.0000000   2.0440000   0.0000000   0.0000000
 NMagM=    0.0000000   0.0000000   0.0000000   0.0000000   0.0000000   0.0000000   0.0000000   0.4037610   0.0000000   0.0000000
 AtZNuc=   6.0000000   6.0000000   6.0000000   6.0000000   8.0000000   6.0000000   8.0000000   7.0000000   6.0000000   6.0000000

  Atom        11          12          13          14          15          16          17          18          19          20
 IAtWgt=          12          12          16           1           1           1           1           1           1           1
 AtmWgt=  12.0000000  12.0000000  15.9949146   1.0078250   1.0078250   1.0078250   1.0078250   1.0078250   1.0078250   1.0078250
 NucSpn=           0           0           0           1           1           1           1           1           1           1
 AtZEff=   0.0000000   0.0000000   0.0000000   0.0000000   0.0000000   0.0000000   0.0000000   0.0000000   0.0000000   0.0000000
 NQMom=    0.0000000   0.0000000   0.0000000   0.0000000   0.0000000   0.0000000   0.0000000   0.0000000   0.0000000   0.0000000
 NMagM=    0.0000000   0.0000000   0.0000000   2.7928460   2.7928460   2.7928460   2.7928460   2.7928460   2.7928460   2.7928460
 AtZNuc=   6.0000000   6.0000000   8.0000000   1.0000000   1.0000000   1.0000000   1.0000000   1.0000000   1.0000000   1.0000000

  Atom        21          22          23          24          25          26          27          28          29          30
 IAtWgt=           1           1           1           1           1           1           1           1           1           1
 AtmWgt=   1.0078250   1.0078250   1.0078250   1.0078250   1.0078250   1.0078250   1.0078250   1.0078250   1.0078250   1.0078250
 NucSpn=           1           1           1           1           1           1           1           1           1           1
 AtZEff=   0.0000000   0.0000000   0.0000000   0.0000000   0.0000000   0.0000000   0.0000000   0.0000000   0.0000000   0.0000000
 NQMom=    0.0000000   0.0000000   0.0000000   0.0000000   0.0000000   0.0000000   0.0000000   0.0000000   0.0000000   0.0000000
 NMagM=    2.7928460   2.7928460   2.7928460   2.7928460   2.7928460   2.7928460   2.7928460   2.7928460   2.7928460   2.7928460
 AtZNuc=   1.0000000   1.0000000   1.0000000   1.0000000   1.0000000   1.0000000   1.0000000   1.0000000   1.0000000   1.0000000
 Leave Link  101 at Wed Oct 19 22:44:40 2011, MaxMem=  128000000 cpu:       0.9
 (Enter /home/foresman/gdv/l103.exe)

 GradGradGradGradGradGradGradGradGradGradGradGradGradGradGradGradGradGrad
 Berny optimization.
 Initialization pass.
 Trust Radius=3.00D-01 FncErr=1.00D-07 GrdErr=1.00D-07
 Number of steps in this run=      2 maximum allowed number of steps=      2.
 GradGradGradGradGradGradGradGradGradGradGradGradGradGradGradGradGradGrad

 Leave Link  103 at Wed Oct 19 22:44:40 2011, MaxMem=  128000000 cpu:       0.2
 (Enter /home/foresman/gdv/l202.exe)
                          Input orientation:                          
 ---------------------------------------------------------------------
 Center     Atomic      Atomic             Coordinates (Angstroms)
 Number     Number       Type             X           Y           Z
 ---------------------------------------------------------------------
      1          6           0        2.362943    0.693051    0.095774
      2          6           0        2.714928    1.176009   -1.319591
      3          6           0        2.398965    1.838524    1.119538
      4          6           0        3.247765   -0.481432    0.530451
      5          8           0        0.994901    0.070949    0.088038
      6          6           0       -0.093975    0.848546   -0.272441
      7          8           0       -0.064686    2.048722   -0.585826
      8          7           0       -1.226020    0.094848   -0.232107
      9          6           0       -2.556965    0.711308   -0.467569
     10          6           0       -3.529925   -0.395151    0.015816
     11          6           0       -2.732642   -1.704854   -0.204461
     12          6           0       -1.301647   -1.314452    0.219245
     13          8           0       -2.777776   -2.129754   -1.599289
     14          1           0       -2.303922   -1.429050   -2.125084
     15          1           0        3.735962    1.571358   -1.328853
     16          1           0        2.653082    0.338654   -2.022623
     17          1           0        2.012241    1.954693   -1.618842
     18          1           0        3.412811    2.248387    1.175747
     19          1           0        1.699757    2.617851    0.813981
     20          1           0        2.114424    1.460907    2.107304
     21          1           0        4.293168   -0.161456    0.583036
     22          1           0        2.930210   -0.840298    1.513940
     23          1           0        3.156963   -1.300926   -0.188662
     24          1           0       -2.694028    0.935232   -1.531752
     25          1           0       -2.649185    1.645487    0.091234
     26          1           0       -3.742886   -0.267701    1.081929
     27          1           0       -4.464228   -0.411852   -0.547225
     28          1           0       -3.126046   -2.542816    0.371252
     29          1           0       -0.554133   -1.928248   -0.284087
     30          1           0       -1.164555   -1.391934    1.304427
 ---------------------------------------------------------------------
                    Distance matrix (angstroms):
                    1          2          3          4          5
     1  C    0.000000
     2  C    1.536359   0.000000
     3  C    1.536717   2.547177   0.000000
     4  C    1.533384   2.540409   2.539623   0.000000
     5  O    1.502867   2.482151   2.481877   2.361409   0.000000
     6  C    2.489218   3.015575   3.021988   3.685201   1.385731
     7  O    2.862831   3.004380   3.003669   4.315100   2.342734
     8  N    3.653219   4.228783   4.243568   4.574751   2.244004
     9  C    4.952088   5.360480   5.324544   6.009456   3.651644
    10  C    5.993034   6.576477   6.431115   6.797748   4.549341
    11  C    5.639599   6.262501   6.375100   6.148344   4.139276
    12  C    4.180255   4.970241   4.944322   4.635507   2.685271
    13  O    6.104790   6.416861   7.066676   6.599993   4.682228
    14  H    5.587052   5.711743   6.581926   6.226642   4.246190
    15  H    2.164756   1.094941   2.802419   2.812346   3.431068
    16  H    2.167345   1.095100   3.491040   2.746703   2.697429
    17  H    2.157461   1.090720   2.767991   3.475728   2.738049
    18  H    2.165095   2.804238   1.095002   2.809904   3.430837
    19  H    2.158818   2.767962   1.090692   3.475957   2.740534
    20  H    2.167399   3.490757   1.095099   2.746563   2.694950
    21  H    2.166420   2.810630   2.806378   1.094539   3.343292
    22  H    2.164289   3.484356   2.759323   1.094019   2.570795
    23  H    2.165021   2.758550   3.484551   1.094047   2.575484
    24  H    5.317936   5.418468   5.812387   6.447055   4.120546
    25  H    5.101821   5.566376   5.155433   6.284164   3.969702
    26  H    6.259128   7.039528   6.493068   7.015626   4.852744
    27  H    6.945828   7.393115   7.412538   7.787238   5.517132
    28  H    6.377752   7.127804   7.090967   6.700755   4.888167
    29  H    3.940157   4.625521   4.987938   4.148636   2.556320
    30  H    4.272148   5.341367   4.813390   4.571283   2.877999
                    6          7          8          9         10
     6  C    0.000000
     7  O    1.240762   0.000000
     8  N    1.360593   2.300312   0.000000
     9  C    2.474516   2.830921   1.485557   0.000000
    10  C    3.665464   4.282799   2.368447   1.550665   0.000000
    11  C    3.672471   4.620905   2.347255   2.436786   1.549033
    12  C    2.525626   3.672758   1.481744   2.480169   2.419032
    13  O    4.222983   5.084056   3.037432   3.066135   2.486592
    14  H    3.674724   4.413433   2.658477   2.718919   2.674974
    15  H    4.038178   3.901909   5.291900   6.409558   7.646464
    16  H    3.296885   3.517809   4.279348   5.449922   6.551586
    17  H    2.733588   2.321549   3.983515   4.873302   6.237746
    18  H    4.044051   3.903331   5.304577   6.379759   7.518996
    19  H    2.743761   2.323064   4.002501   4.837040   6.088088
    20  H    3.303816   3.513830   4.300875   5.386441   6.299043
    21  H    4.582463   5.024143   5.584943   6.984970   7.847110
    22  H    3.897312   4.660993   4.604066   6.036799   6.646493
    23  H    3.898184   4.664429   4.600067   6.064309   6.751052
    24  H    2.890269   3.008001   2.133159   1.096091   2.205359
    25  H    2.701198   2.701970   2.129419   1.092454   2.223869
    26  H    4.049058   4.655789   2.862297   2.183073   1.094620
    27  H    4.556668   5.041020   3.292725   2.214833   1.090971
    28  H    4.594467   5.600905   3.306269   3.408342   2.214028
    29  H    2.814687   4.018320   2.132382   3.318472   3.360902
    30  H    2.941497   4.076871   2.138980   3.082596   2.872119
                   11         12         13         14         15
    11  C    0.000000
    12  C    1.542624   0.000000
    13  O    1.458809   2.480068   0.000000
    14  H    1.987124   2.552168   0.995984   0.000000
    15  H    7.337620   6.008495   7.496677   6.790923   0.000000
    16  H    6.040502   4.837211   5.980507   5.263759   1.781434
    17  H    6.156840   5.004770   6.295026   5.507745   1.789484
    18  H    7.436376   5.986220   8.074176   7.556458   2.614539
    19  H    6.274486   4.982484   6.957868   6.406633   3.135764
    20  H    6.233808   4.789251   7.110929   6.766590   3.801152
    21  H    7.236314   5.723959   7.657349   7.243086   2.639780
    22  H    5.980657   4.450806   6.628424   6.401973   3.814026
    23  H    5.903461   4.477251   6.156131   5.795464   3.144088
    24  H    2.955207   3.172663   3.066874   2.468614   6.464564
    25  H    3.364400   3.254763   4.138460   3.805792   6.541578
    26  H    2.177338   2.792769   3.404058   3.701929   8.070141
    27  H    2.188088   3.376993   2.627193   2.862036   8.472732
    28  H    1.090134   2.204635   2.043268   2.854480   8.179483
    29  H    2.191380   1.090351   2.591322   2.588480   5.634155
    30  H    2.198536   1.096548   3.402709   3.614011   6.303200
                   16         17         18         19         20
    16  H    0.000000
    17  H    1.784740   0.000000
    18  H    3.801821   3.139679   0.000000
    19  H    3.761634   2.540876   1.789395   0.000000
    20  H    4.313456   3.760111   1.781497   1.784140   0.000000
    21  H    3.119207   3.811690   2.633188   3.808368   3.114864
    22  H    3.738183   4.297553   3.144401   3.736677   2.512594
    23  H    2.511081   3.735620   3.811128   4.299483   3.739795
    24  H    5.402633   4.816207   6.807966   5.257281   6.053121
    25  H    5.855786   4.974822   6.187685   4.514548   5.175962
    26  H    7.135426   6.734588   7.585743   6.166082   6.192541
    27  H    7.307268   6.978076   8.490774   7.001906   7.337058
    28  H    6.887077   7.112668   8.146133   7.079327   6.819545
    29  H    4.295065   4.842012   5.942394   5.191608   4.932172
    30  H    5.351500   5.462366   5.849853   4.952090   4.419844
                   21         22         23         24         25
    21  H    0.000000
    22  H    1.784675   0.000000
    23  H    1.784621   1.778328   0.000000
    24  H    7.382137   6.637830   6.406120   0.000000
    25  H    7.190492   6.271591   6.516981   1.772162   0.000000
    26  H    8.052226   6.711535   7.091535   3.062430   2.416184
    27  H    8.833582   7.688282   7.681248   2.432599   2.816853
    28  H    7.794900   6.393945   6.428996   3.988093   4.224652
    29  H    5.231614   4.069052   3.764953   3.786203   4.159530
    30  H    5.641031   4.137064   4.573086   3.974783   3.591920
                   26         27         28         29         30
    26  H    0.000000
    27  H    1.787529   0.000000
    28  H    2.462052   2.678682   0.000000
    29  H    3.845980   4.202088   2.724316   0.000000
    30  H    2.821559   3.908582   2.458208   1.784271   0.000000
 Stoichiometry    C9H17NO3
 Framework group  C1[X(C9H17NO3)]
 Deg. of freedom    84
 Full point group                 C1      NOp   1
 Largest Abelian subgroup         C1      NOp   1
 Largest concise Abelian subgroup C1      NOp   1
                         Standard orientation:                         
 ---------------------------------------------------------------------
 Center     Atomic      Atomic             Coordinates (Angstroms)
 Number     Number       Type             X           Y           Z
 ---------------------------------------------------------------------
      1          6           0       -2.577881   -0.287039   -0.015333
      2          6           0       -2.915531    0.083585    1.436917
      3          6           0       -3.100852    0.759197   -1.012024
      4          6           0       -3.065409   -1.697296   -0.368541
      5          8           0       -1.088618   -0.421605   -0.165658
      6          6           0       -0.286410    0.679994    0.085727
      7          8           0       -0.677401    1.809636    0.418183
      8          7           0        1.019994    0.342189   -0.088658
      9          6           0        2.089030    1.369007    0.009750
     10          6           0        3.315410    0.635979   -0.592930
     11          6           0        3.025127   -0.858442   -0.306667
     12          6           0        1.508807   -0.972498   -0.566383
     13          8           0        3.358045   -1.213583    1.068529
     14          1           0        2.738428   -0.697467    1.653065
     15          1           0       -4.002599    0.119290    1.563034
     16          1           0       -2.504815   -0.670489    2.116570
     17          1           0       -2.482315    1.057194    1.669465
     18          1           0       -4.193024    0.809524   -0.951549
     19          1           0       -2.670432    1.732402   -0.772820
     20          1           0       -2.815320    0.475124   -2.030364
     21          1           0       -4.157026   -1.742130   -0.302363
     22          1           0       -2.754673   -1.952667   -1.385943
     23          1           0       -2.631730   -2.424590    0.324210
     24          1           0        2.257835    1.649125    1.055911
     25          1           0        1.806212    2.268556   -0.541868
     26          1           0        3.358247    0.803055   -1.673876
     27          1           0        4.257381    0.941521   -0.135160
     28          1           0        3.609384   -1.531762   -0.934103
     29          1           0        1.065287   -1.787604    0.006119
     30          1           0        1.289249   -1.114918   -1.631244
 ---------------------------------------------------------------------
 Rotational constants (GHZ):      1.6369830      0.4189618      0.3829838
 Leave Link  202 at Wed Oct 19 22:44:40 2011, MaxMem=  128000000 cpu:       0.0
 (Enter /home/foresman/gdv/l301.exe)
 Standard basis: 3-21G (6D, 7F)
 Ernie: Thresh=  0.10000D-02 Tol=  0.10000D-05 Strict=F.
 There are   151 symmetry adapted cartesian basis functions of A   symmetry.
 There are   151 symmetry adapted basis functions of A   symmetry.
   151 basis functions,   246 primitive gaussians,   151 cartesian basis functions
    51 alpha electrons       51 beta electrons
       nuclear repulsion energy       879.4696943252 Hartrees.
 IExCor=  402 DFT=T Ex+Corr=B3LYP ExCW=0 ScaHFX=  0.200000
 ScaDFX=  0.800000  0.720000  1.000000  0.810000 ScalE2=  1.000000  1.000000
 IRadAn=      0 IRanWt=     -1 IRanGd=            0 ICorTp=0 IEmpDi=  4
 NAtoms=   30 NActive=   30 NUniq=   30 SFac= 1.00D+00 NAtFMM=   60 NAOKFM=F Big=F
 Integral buffers will be    131072 words long.
 Raffenetti 2 integral format.
 Two-electron integral symmetry is turned on.
 Leave Link  301 at Wed Oct 19 22:44:40 2011, MaxMem=  128000000 cpu:       0.5
 (Enter /home/foresman/gdv/l302.exe)
 NPDir=0 NMtPBC=     1 NCelOv=     1 NCel=       1 NClECP=     1 NCelD=      1
         NCelK=      1 NCelE2=     1 NClLst=     1 CellRange=     0.0.
 One-electron integrals computed using PRISM.
 NBasis=   151 RedAO= T EigKep=  9.43D-03  NBF=   151
 NBsUse=   151 1.00D-06 EigRej= -1.00D+00 NBFU=   151
 Precomputing XC quadrature grid using
 IXCGrd= 2 IRadAn=           0 IRanWt=          -1 IRanGd=           0 AccXCQ= 0.00D+00.
 NRdTot=    1896 NPtTot=      240388 NUsed=      254063 NTot=      254095
 NSgBfM=   148   148   148   149   149 NAtAll=    30    30.
 Leave Link  302 at Wed Oct 19 22:44:40 2011, MaxMem=  128000000 cpu:       2.2
 (Enter /home/foresman/gdv/l303.exe)
 DipDrv:  MaxL=2.
 Leave Link  303 at Wed Oct 19 22:44:40 2011, MaxMem=  128000000 cpu:       0.4
 (Enter /home/foresman/gdv/l401.exe)
 ExpMin= 1.83D-01 ExpMax= 3.22D+02 ExpMxC= 3.22D+02 IAcc=1 IRadAn=         1 AccDes= 0.00D+00
 Harris functional with IExCor=  402 and IRadAn=       1 diagonalized for initial guess.
 HarFok:  IExCor=  402 AccDes= 0.00D+00 IRadAn=         1 IDoV= 1 UseB2=F ITyADJ=14
 ICtDFT=  3500011 ScaDFX=  1.000000  1.000000  1.000000  1.000000
 FoFCou: FMM=F IPFlag=           0 FMFlag=      100000 FMFlg1=           0
         NFxFlg=           0 DoJE=T BraDBF=F KetDBF=T FulRan=T
         wScrn=  0.000000 ICntrl=     500 IOpCl=  0 I1Cent=   200000004 NGrid=           0
         NMat0=    1 NMatS0=      1 NMatT0=    0 NMatD0=    1 NMtDS0=    0 NMtDT0=    0
 Petite list used in FoFCou.
 Harris En= -630.189901196949    
 Initial guess orbital symmetries:
       Occupied  (A) (A) (A) (A) (A) (A) (A) (A) (A) (A) (A) (A)
                 (A) (A) (A) (A) (A) (A) (A) (A) (A) (A) (A) (A)
                 (A) (A) (A) (A) (A) (A) (A) (A) (A) (A) (A) (A)
                 (A) (A) (A) (A) (A) (A) (A) (A) (A) (A) (A) (A)
                 (A) (A) (A)
       Virtual   (A) (A) (A) (A) (A) (A) (A) (A) (A) (A) (A) (A)
                 (A) (A) (A) (A) (A) (A) (A) (A) (A) (A) (A) (A)
                 (A) (A) (A) (A) (A) (A) (A) (A) (A) (A) (A) (A)
                 (A) (A) (A) (A) (A) (A) (A) (A) (A) (A) (A) (A)
                 (A) (A) (A) (A) (A) (A) (A) (A) (A) (A) (A) (A)
                 (A) (A) (A) (A) (A) (A) (A) (A) (A) (A) (A) (A)
                 (A) (A) (A) (A) (A) (A) (A) (A) (A) (A) (A) (A)
                 (A) (A) (A) (A) (A) (A) (A) (A) (A) (A) (A) (A)
                 (A) (A) (A) (A)
 The electronic state of the initial guess is 1-A.
 Leave Link  401 at Wed Oct 19 22:44:41 2011, MaxMem=  128000000 cpu:       3.0
 (Enter /home/foresman/gdv/l502.exe)
 Closed shell SCF:
 Using DIIS extrapolation, IDIIS=  1040.
 Integral symmetry usage will be decided dynamically.
       253780 words used for storage of precomputed grid.
 Keep R1 ints in memory in canonical form, NReq=67953581.
 IVT=      342727 IEndB=      342727 NGot=   128000000 MDV=    61802248
 LenX=    61802248 LenY=    61779006
 Requested convergence on RMS density matrix=1.00D-08 within 128 cycles.
 Requested convergence on MAX density matrix=1.00D-06.
 Requested convergence on             energy=1.00D-06.
 No special actions if energy rises.
 FoFCou: FMM=F IPFlag=           0 FMFlag=           0 FMFlg1=           0
         NFxFlg=           0 DoJE=F BraDBF=F KetDBF=F FulRan=T
         wScrn=  0.000000 ICntrl=     600 IOpCl=  0 I1Cent=           0 NGrid=           0
         NMat0=    1 NMatS0=  11476 NMatT0=    0 NMatD0=    1 NMtDS0=    0 NMtDT0=    0
 Symmetry not used in FoFCou.
 Integral accuracy reduced to 1.0D-05 until final iterations.

 Cycle   1  Pass 0  IDiag  1:
 E= -629.851087086123    
 DIIS: error= 4.69D-02 at cycle   1 NSaved=   1.
 NSaved= 1 IEnMin= 1 EnMin= -629.851087086123     IErMin= 1 ErrMin= 4.69D-02
 ErrMax= 4.69D-02  0.00D+00 EMaxC= 1.00D-01 BMatC= 3.64D-01 BMatP= 3.64D-01
 IDIUse=3 WtCom= 5.31D-01 WtEn= 4.69D-01
 Coeff-Com:  0.100D+01
 Coeff-En:   0.100D+01
 Coeff:      0.100D+01
 Gap=     0.273 Goal=   None    Shift=    0.000
 GapD=    0.273 DampG=1.000 DampE=0.500 DampFc=0.5000 IDamp=-1.
 Damping current iteration by 5.00D-01
 RMSDP=8.94D-03 MaxDP=1.72D-01              OVMax= 3.28D-01

 Cycle   2  Pass 0  IDiag  1:
 E= -629.950464420585     Delta-E=       -0.099377334461 Rises=F Damp=T
 DIIS: error= 3.28D-02 at cycle   2 NSaved=   2.
 NSaved= 2 IEnMin= 2 EnMin= -629.950464420585     IErMin= 2 ErrMin= 3.28D-02
 ErrMax= 3.28D-02  0.00D+00 EMaxC= 1.00D-01 BMatC= 5.20D-02 BMatP= 3.64D-01
 IDIUse=3 WtCom= 6.72D-01 WtEn= 3.28D-01
 Coeff-Com:  0.203D+00 0.797D+00
 Coeff-En:   0.313D+00 0.687D+00
 Coeff:      0.239D+00 0.761D+00
 Gap=     0.289 Goal=   None    Shift=    0.000
 RMSDP=2.82D-03 MaxDP=6.40D-02 DE=-9.94D-02 OVMax= 2.09D-01

 Cycle   3  Pass 0  IDiag  1:
 E= -630.126714045593     Delta-E=       -0.176249625008 Rises=F Damp=F
 DIIS: error= 3.96D-02 at cycle   3 NSaved=   3.
 NSaved= 3 IEnMin= 3 EnMin= -630.126714045593     IErMin= 2 ErrMin= 3.28D-02
 ErrMax= 3.96D-02  0.00D+00 EMaxC= 1.00D-01 BMatC= 6.21D-02 BMatP= 5.20D-02
 IDIUse=2 WtCom= 0.00D+00 WtEn= 1.00D+00
 Coeff-En:   0.000D+00 0.000D+00 0.100D+01
 Coeff:      0.000D+00 0.000D+00 0.100D+01
 Gap=     0.327 Goal=   None    Shift=    0.000
 RMSDP=5.23D-03 MaxDP=1.30D-01 DE=-1.76D-01 OVMax= 3.06D-01

 Cycle   4  Pass 0  IDiag  1:
 E= -629.886067422469     Delta-E=        0.240646623124 Rises=F Damp=F
 DIIS: error= 1.09D-01 at cycle   4 NSaved=   4.
 NSaved= 4 IEnMin= 3 EnMin= -630.126714045593     IErMin= 2 ErrMin= 3.28D-02
 ErrMax= 1.09D-01  0.00D+00 EMaxC= 1.00D-01 BMatC= 3.72D-01 BMatP= 5.20D-02
 IDIUse=2 WtCom= 0.00D+00 WtEn= 1.00D+00
 Coeff-En:   0.000D+00 0.000D+00 0.796D+00 0.204D+00
 Coeff:      0.000D+00 0.000D+00 0.796D+00 0.204D+00
 Gap=     0.283 Goal=   None    Shift=    0.000
 RMSDP=2.85D-03 MaxDP=7.40D-02 DE= 2.41D-01 OVMax= 1.43D-01

 Cycle   5  Pass 0  IDiag  1:
 E= -630.159008727045     Delta-E=       -0.272941304576 Rises=F Damp=F
 DIIS: error= 2.61D-02 at cycle   5 NSaved=   5.
 NSaved= 5 IEnMin= 5 EnMin= -630.159008727045     IErMin= 5 ErrMin= 2.61D-02
 ErrMax= 2.61D-02  0.00D+00 EMaxC= 1.00D-01 BMatC= 2.44D-02 BMatP= 5.20D-02
 IDIUse=3 WtCom= 7.39D-01 WtEn= 2.61D-01
 Coeff-Com: -0.113D-01 0.551D-01 0.314D+00-0.719D-01 0.714D+00
 Coeff-En:   0.000D+00 0.000D+00 0.321D+00 0.000D+00 0.679D+00
 Coeff:     -0.831D-02 0.407D-01 0.316D+00-0.531D-01 0.705D+00
 Gap=     0.301 Goal=   None    Shift=    0.000
 RMSDP=1.05D-03 MaxDP=2.61D-02 DE=-2.73D-01 OVMax= 4.02D-02

 Cycle   6  Pass 0  IDiag  1:
 E= -630.178772179975     Delta-E=       -0.019763452930 Rises=F Damp=F
 DIIS: error= 2.59D-03 at cycle   6 NSaved=   6.
 NSaved= 6 IEnMin= 6 EnMin= -630.178772179975     IErMin= 6 ErrMin= 2.59D-03
 ErrMax= 2.59D-03  0.00D+00 EMaxC= 1.00D-01 BMatC= 2.81D-04 BMatP= 2.44D-02
 IDIUse=3 WtCom= 9.74D-01 WtEn= 2.59D-02
 Coeff-Com: -0.977D-02 0.252D-01 0.133D+00-0.458D-01 0.401D+00 0.496D+00
 Coeff-En:   0.000D+00 0.000D+00 0.000D+00 0.000D+00 0.000D+00 0.100D+01
 Coeff:     -0.951D-02 0.245D-01 0.130D+00-0.446D-01 0.391D+00 0.509D+00
 Gap=     0.284 Goal=   None    Shift=    0.000
 RMSDP=1.17D-04 MaxDP=3.65D-03 DE=-1.98D-02 OVMax= 5.90D-03

 Cycle   7  Pass 0  IDiag  1:
 E= -630.178995386891     Delta-E=       -0.000223206916 Rises=F Damp=F
 DIIS: error= 4.34D-04 at cycle   7 NSaved=   7.
 NSaved= 7 IEnMin= 7 EnMin= -630.178995386891     IErMin= 7 ErrMin= 4.34D-04
 ErrMax= 4.34D-04  0.00D+00 EMaxC= 1.00D-01 BMatC= 9.00D-06 BMatP= 2.81D-04
 IDIUse=3 WtCom= 9.96D-01 WtEn= 4.34D-03
 Coeff-Com: -0.325D-02 0.767D-02 0.343D-01-0.163D-01 0.123D+00 0.250D+00
 Coeff-Com:  0.605D+00
 Coeff-En:   0.000D+00 0.000D+00 0.000D+00 0.000D+00 0.000D+00 0.000D+00
 Coeff-En:   0.100D+01
 Coeff:     -0.323D-02 0.764D-02 0.341D-01-0.163D-01 0.122D+00 0.249D+00
 Coeff:      0.607D+00
 Gap=     0.284 Goal=   None    Shift=    0.000
 RMSDP=1.81D-05 MaxDP=4.43D-04 DE=-2.23D-04 OVMax= 5.89D-04

 Cycle   8  Pass 0  IDiag  1:
 E= -630.179002118321     Delta-E=       -0.000006731430 Rises=F Damp=F
 DIIS: error= 6.73D-05 at cycle   8 NSaved=   8.
 NSaved= 8 IEnMin= 8 EnMin= -630.179002118321     IErMin= 8 ErrMin= 6.73D-05
 ErrMax= 6.73D-05  0.00D+00 EMaxC= 1.00D-01 BMatC= 5.69D-07 BMatP= 9.00D-06
 IDIUse=1 WtCom= 1.00D+00 WtEn= 0.00D+00
 Coeff-Com: -0.297D-03-0.139D-03 0.299D-02-0.162D-02 0.142D-01 0.848D-01
 Coeff-Com:  0.304D+00 0.596D+00
 Coeff:     -0.297D-03-0.139D-03 0.299D-02-0.162D-02 0.142D-01 0.848D-01
 Coeff:      0.304D+00 0.596D+00
 Gap=     0.284 Goal=   None    Shift=    0.000
 RMSDP=5.74D-06 MaxDP=1.06D-04 DE=-6.73D-06 OVMax= 1.89D-04

 Initial convergence to 1.0D-05 achieved.  Increase integral accuracy.
 Cycle   9  Pass 1  IDiag  1:
 E= -630.179060424622     Delta-E=       -0.000058306301 Rises=F Damp=F
 DIIS: error= 1.30D-05 at cycle   1 NSaved=   1.
 NSaved= 1 IEnMin= 1 EnMin= -630.179060424622     IErMin= 1 ErrMin= 1.30D-05
 ErrMax= 1.30D-05  0.00D+00 EMaxC= 1.00D-01 BMatC= 6.94D-08 BMatP= 6.94D-08
 IDIUse=1 WtCom= 1.00D+00 WtEn= 0.00D+00
 Coeff-Com:  0.100D+01
 Coeff:      0.100D+01
 Gap=     0.284 Goal=   None    Shift=    0.000
 RMSDP=5.74D-06 MaxDP=1.06D-04 DE=-5.83D-05 OVMax= 6.40D-05

 Cycle  10  Pass 1  IDiag  1:
 E= -630.179060497538     Delta-E=       -0.000000072916 Rises=F Damp=F
 DIIS: error= 1.87D-05 at cycle   2 NSaved=   2.
 NSaved= 2 IEnMin= 2 EnMin= -630.179060497538     IErMin= 1 ErrMin= 1.30D-05
 ErrMax= 1.87D-05  0.00D+00 EMaxC= 1.00D-01 BMatC= 3.16D-08 BMatP= 6.94D-08
 IDIUse=1 WtCom= 1.00D+00 WtEn= 0.00D+00
 Coeff-Com:  0.360D+00 0.640D+00
 Coeff:      0.360D+00 0.640D+00
 Gap=     0.284 Goal=   None    Shift=    0.000
 RMSDP=1.72D-06 MaxDP=4.96D-05 DE=-7.29D-08 OVMax= 6.42D-05

 Cycle  11  Pass 1  IDiag  1:
 E= -630.179060508352     Delta-E=       -0.000000010815 Rises=F Damp=F
 DIIS: error= 1.54D-05 at cycle   3 NSaved=   3.
 NSaved= 3 IEnMin= 3 EnMin= -630.179060508352     IErMin= 1 ErrMin= 1.30D-05
 ErrMax= 1.54D-05  0.00D+00 EMaxC= 1.00D-01 BMatC= 1.68D-08 BMatP= 3.16D-08
 IDIUse=1 WtCom= 1.00D+00 WtEn= 0.00D+00
 Coeff-Com: -0.151D-01 0.422D+00 0.593D+00
 Coeff:     -0.151D-01 0.422D+00 0.593D+00
 Gap=     0.284 Goal=   None    Shift=    0.000
 RMSDP=8.03D-07 MaxDP=2.71D-05 DE=-1.08D-08 OVMax= 3.28D-05

 Cycle  12  Pass 1  IDiag  1:
 E= -630.179060520355     Delta-E=       -0.000000012002 Rises=F Damp=F
 DIIS: error= 1.80D-06 at cycle   4 NSaved=   4.
 NSaved= 4 IEnMin= 4 EnMin= -630.179060520355     IErMin= 4 ErrMin= 1.80D-06
 ErrMax= 1.80D-06  0.00D+00 EMaxC= 1.00D-01 BMatC= 3.38D-10 BMatP= 1.68D-08
 IDIUse=1 WtCom= 1.00D+00 WtEn= 0.00D+00
 Coeff-Com: -0.129D-01 0.207D+00 0.312D+00 0.494D+00
 Coeff:     -0.129D-01 0.207D+00 0.312D+00 0.494D+00
 Gap=     0.284 Goal=   None    Shift=    0.000
 RMSDP=1.57D-07 MaxDP=5.52D-06 DE=-1.20D-08 OVMax= 5.13D-06

 Cycle  13  Pass 1  IDiag  1:
 E= -630.179060520633     Delta-E=       -0.000000000279 Rises=F Damp=F
 DIIS: error= 6.51D-07 at cycle   5 NSaved=   5.
 NSaved= 5 IEnMin= 5 EnMin= -630.179060520633     IErMin= 5 ErrMin= 6.51D-07
 ErrMax= 6.51D-07  0.00D+00 EMaxC= 1.00D-01 BMatC= 3.20D-11 BMatP= 3.38D-10
 IDIUse=1 WtCom= 1.00D+00 WtEn= 0.00D+00
 Coeff-Com: -0.586D-02 0.589D-01 0.956D-01 0.262D+00 0.590D+00
 Coeff:     -0.586D-02 0.589D-01 0.956D-01 0.262D+00 0.590D+00
 Gap=     0.284 Goal=   None    Shift=    0.000
 RMSDP=5.12D-08 MaxDP=1.07D-06 DE=-2.79D-10 OVMax= 1.92D-06

 Cycle  14  Pass 1  IDiag  1:
 E= -630.179060520644     Delta-E=       -0.000000000011 Rises=F Damp=F
 DIIS: error= 5.14D-07 at cycle   6 NSaved=   6.
 NSaved= 6 IEnMin= 6 EnMin= -630.179060520644     IErMin= 6 ErrMin= 5.14D-07
 ErrMax= 5.14D-07  0.00D+00 EMaxC= 1.00D-01 BMatC= 8.12D-12 BMatP= 3.20D-11
 IDIUse=1 WtCom= 1.00D+00 WtEn= 0.00D+00
 Coeff-Com: -0.297D-02 0.246D-01 0.414D-01 0.135D+00 0.396D+00 0.406D+00
 Coeff:     -0.297D-02 0.246D-01 0.414D-01 0.135D+00 0.396D+00 0.406D+00
 Gap=     0.284 Goal=   None    Shift=    0.000
 RMSDP=1.96D-08 MaxDP=4.47D-07 DE=-1.14D-11 OVMax= 8.84D-07

 Cycle  15  Pass 1  IDiag  1:
 E= -630.179060520651     Delta-E=       -0.000000000006 Rises=F Damp=F
 DIIS: error= 6.77D-08 at cycle   7 NSaved=   7.
 NSaved= 7 IEnMin= 7 EnMin= -630.179060520651     IErMin= 7 ErrMin= 6.77D-08
 ErrMax= 6.77D-08  0.00D+00 EMaxC= 1.00D-01 BMatC= 3.53D-13 BMatP= 8.12D-12
 IDIUse=1 WtCom= 1.00D+00 WtEn= 0.00D+00
 Coeff-Com: -0.549D-03 0.286D-02 0.545D-02 0.297D-01 0.121D+00 0.203D+00
 Coeff-Com:  0.638D+00
 Coeff:     -0.549D-03 0.286D-02 0.545D-02 0.297D-01 0.121D+00 0.203D+00
 Coeff:      0.638D+00
 Gap=     0.284 Goal=   None    Shift=    0.000
 RMSDP=5.23D-09 MaxDP=1.21D-07 DE=-6.37D-12 OVMax= 1.46D-07

 SCF Done:  E(RB3LYP) =  -630.179060521     A.U. after   15 cycles
            NFock= 15  Conv=0.52D-08     -V/T= 2.0085
 KE= 6.248517939162D+02 PE=-3.228263671502D+03 EE= 1.093763122740D+03
 Leave Link  502 at Wed Oct 19 22:44:53 2011, MaxMem=  128000000 cpu:      97.6
 (Enter /home/foresman/gdv/l801.exe)
 DoSCS=F DFT=T ScalE2(SS,OS)=  1.000000  1.000000
 Range of M.O.s used for correlation:     1   151
 NBasis=   151 NAE=    51 NBE=    51 NFC=     0 NFV=     0
 NROrb=    151 NOA=    51 NOB=    51 NVA=   100 NVB=   100
 Leave Link  801 at Wed Oct 19 22:44:53 2011, MaxMem=  128000000 cpu:       0.3
 (Enter /home/foresman/gdv/l1002.exe)
 Minotr:  Closed shell wavefunction.
          Direct CPHF calculation.
          Differentiating once with respect to magnetic field using GIAOs.
          Electric field/nuclear overlap derivatives assumed to be zero.
          Requested convergence is 1.0D-08 RMS, and 1.0D-07 maximum.
          Secondary convergence is 1.0D-12 RMS, and 1.0D-12 maximum.
          NewPWx=T KeepS1=F KeepF1=F KeepIn=T MapXYZ=F SortEE=F KeepMc=T.
          MDV=     127999605 using IRadAn=       2.
 Generate precomputed XC quadrature information.
 Keep R3 ints in memory in canonical form, NReq=67618787.
 FoFCou: FMM=F IPFlag=           0 FMFlag=           0 FMFlg1=           0
         NFxFlg=           0 DoJE=F BraDBF=F KetDBF=F FulRan=T
         wScrn=  0.000000 ICntrl=     600 IOpCl=  0 I1Cent=           0 NGrid=           0
         NMat0=    1 NMatS0=  11476 NMatT0=    0 NMatD0=    1 NMtDS0=    0 NMtDT0=    0
 Symmetry not used in FoFCou.
          Solving linear equations simultaneously, MaxMat=       0.
 FoFJK:  IHMeth= 1 ICntrl=    6127 DoSepK=F KAlg= 0 I1Cent=   0 FoldK=F
 IRaf=       1 NMat=   1 IRICut=       1 DoRegI=T DoRafI=F ISym2E= 0.
          There are     3 degrees of freedom in the 1st order CPHF.  IDoFFX=0 NUNeed=     3.
      3 vectors produced by pass  0 Test12= 1.70D-13 3.33D-08 XBig12= 2.65D+01 8.03D-01.
 AX will form     3 AO Fock derivatives at one time.
      3 vectors produced by pass  1 Test12= 1.70D-13 3.33D-08 XBig12= 3.30D-02 7.98D-02.
      3 vectors produced by pass  2 Test12= 1.70D-13 3.33D-08 XBig12= 1.99D-04 6.35D-03.
      3 vectors produced by pass  3 Test12= 1.70D-13 3.33D-08 XBig12= 4.20D-07 1.51D-04.
      3 vectors produced by pass  4 Test12= 1.70D-13 3.33D-08 XBig12= 9.25D-10 8.18D-06.
      3 vectors produced by pass  5 Test12= 1.70D-13 3.33D-08 XBig12= 2.88D-12 6.04D-07.
 InvSVY:  IOpt=1 It=  1 EMax= 1.11D-16
 Solved reduced A of dimension    18 with     3 vectors.
 Calculating GIAO nuclear magnetic shielding tensors.
 SCF GIAO Magnetic shielding tensor (ppm):
      1  C    Isotropic =   123.8101   Anisotropy =    69.7346
   XX=   169.9436   YX=     0.2627   ZX=    -5.0305
   XY=     0.4053   YY=    99.0609   ZY=    -1.0439
   XZ=    -4.7704   YZ=    -1.2213   ZZ=   102.4258
   Eigenvalues:    98.6964   102.4341   170.2998
      2  C    Isotropic =   178.8174   Anisotropy =    35.3767
   XX=   170.9609   YX=    -5.2740   ZX=    -6.0628
   XY=    -6.0825   YY=   164.5575   ZY=     5.6570
   XZ=    -2.0718   YZ=     4.6522   ZZ=   200.9337
   Eigenvalues:   161.0850   172.9653   202.4018
      3  C    Isotropic =   178.6694   Anisotropy =    35.5209
   XX=   172.1575   YX=   -10.3830   ZX=     5.5136
   XY=    -8.9176   YY=   177.9135   ZY=   -17.7769
   XZ=     1.7667   YZ=   -16.8325   ZZ=   185.9372
   Eigenvalues:   161.0712   172.5870   202.3500
      4  C    Isotropic =   173.9411   Anisotropy =    40.9850
   XX=   164.4840   YX=    12.2523   ZX=     3.1346
   XY=     9.7237   YY=   195.5020   ZY=     9.1010
   XZ=     2.5744   YZ=     8.9135   ZZ=   161.8372
   Eigenvalues:   159.5727   160.9862   201.2644
      5  O    Isotropic =   157.4444   Anisotropy =    82.6147
   XX=   123.8675   YX=     9.0625   ZX=     8.1870
   XY=   133.2781   YY=   155.1483   ZY=   -22.1396
   XZ=    37.8178   YZ=   -18.3386   ZZ=   193.3174
   Eigenvalues:    59.6306   200.1817   212.5208
      6  C    Isotropic =    61.4520   Anisotropy =    61.9310
   XX=     7.8461   YX=   -35.8846   ZX=    -3.5703
   XY=   -52.5719   YY=    81.5198   ZY=    -0.1226
   XZ=    -9.8507   YZ=    -1.9356   ZZ=    94.9900
   Eigenvalues:   -13.2685    94.8851   102.7393
      7  O    Isotropic =    36.4478   Anisotropy =   391.1604
   XX=   -68.6726   YX=     2.8341   ZX=    22.7218
   XY=    -4.6764   YY=   -87.8112   ZY=  -107.4288
   XZ=    23.5497   YZ=  -107.1585   ZZ=   265.8273
   Eigenvalues:  -118.4066   -69.4713   297.2215
      8  N    Isotropic =   179.6453   Anisotropy =   137.5017
   XX=   266.3220   YX=    -6.1963   ZX=   -17.6287
   XY=   -21.6862   YY=   134.4149   ZY=    -2.1908
   XZ=   -26.3963   YZ=    -1.9611   ZZ=   138.1991
   Eigenvalues:   129.4301   138.1928   271.3131
      9  C    Isotropic =   160.0701   Anisotropy =    51.5166
   XX=   180.1400   YX=    23.3656   ZX=    -4.1549
   XY=    18.3548   YY=   163.7738   ZY=     3.5697
   XZ=    -6.9781   YZ=     6.7807   ZZ=   136.2966
   Eigenvalues:   132.9425   152.8534   194.4145
     10  C    Isotropic =   169.6688   Anisotropy =    28.9778
   XX=   171.4002   YX=     1.4146   ZX=     0.6557
   XY=    10.1167   YY=   186.5506   ZY=    -5.7030
   XZ=    -8.0036   YZ=    -0.9018   ZZ=   151.0555
   Eigenvalues:   150.2645   169.7545   188.9873
     11  C    Isotropic =   132.1107   Anisotropy =    27.4953
   XX=   126.2273   YX=     4.2104   ZX=     6.5648
   XY=     2.2446   YY=   128.8074   ZY=    -4.1185
   XZ=    16.6016   YZ=   -16.4490   ZZ=   141.2973
   Eigenvalues:   114.9891   130.9020   150.4409
     12  C    Isotropic =   150.3371   Anisotropy =    30.2753
   XX=   164.8972   YX=    -5.4064   ZX=     1.2038
   XY=   -13.6252   YY=   154.2502   ZY=    -0.6493
   XZ=     0.2532   YZ=     8.2085   ZZ=   131.8640
   Eigenvalues:   131.0739   149.4169   170.5207
     13  O    Isotropic =   262.2372   Anisotropy =    31.4382
   XX=   281.6181   YX=     5.6999   ZX=   -13.7249
   XY=    10.2953   YY=   241.3953   ZY=     9.8063
   XZ=    17.4409   YZ=   -19.2756   ZZ=   263.6983
   Eigenvalues:   238.8564   264.6592   283.1960
     14  H    Isotropic =    31.6544   Anisotropy =     9.2242
   XX=    30.1789   YX=    -4.8526   ZX=    -2.5627
   XY=    -4.8825   YY=    27.9680   ZY=     0.5548
   XZ=    -1.3748   YZ=     0.5231   ZZ=    36.8164
   Eigenvalues:    24.0296    33.1298    37.8039
     15  H    Isotropic =    31.9598   Anisotropy =     9.1249
   XX=    35.5931   YX=    -0.9354   ZX=    -3.4771
   XY=    -1.1472   YY=    28.2689   ZY=     0.7997
   XZ=    -3.8325   YZ=     0.7200   ZZ=    32.0172
   Eigenvalues:    28.0946    29.7416    38.0430
     16  H    Isotropic =    31.8263   Anisotropy =     7.7989
   XX=    29.7180   YX=    -0.5536   ZX=    -0.2235
   XY=    -0.5837   YY=    30.0038   ZY=    -2.2520
   XZ=     0.7913   YZ=    -3.6281   ZZ=    35.7570
   Eigenvalues:    28.6086    29.8447    37.0255
     17  H    Isotropic =    29.8165   Anisotropy =     6.5146
   XX=    28.6561   YX=     2.3864   ZX=    -1.9332
   XY=     3.0217   YY=    31.0031   ZY=     2.7504
   XZ=    -2.4760   YZ=     4.4647   ZZ=    29.7902
   Eigenvalues:    24.1211    31.1688    34.1595
     18  H    Isotropic =    31.9707   Anisotropy =     9.1329
   XX=    36.4264   YX=    -2.5836   ZX=     1.7564
   XY=    -2.9431   YY=    29.7382   ZY=    -1.5427
   XZ=     2.0011   YZ=    -1.5675   ZZ=    29.7475
   Eigenvalues:    28.1073    29.7455    38.0593
     19  H    Isotropic =    29.8183   Anisotropy =     6.6197
   XX=    29.3928   YX=     0.5766   ZX=     2.5215
   XY=     1.0922   YY=    34.0043   ZY=    -0.3658
   XZ=     3.4081   YZ=    -2.1108   ZZ=    26.0577
   Eigenvalues:    24.0994    31.1240    34.2314
     20  H    Isotropic =    31.8212   Anisotropy =     7.8199
   XX=    29.6697   YX=    -0.6454   ZX=     0.9600
   XY=    -0.3285   YY=    28.9650   ZY=    -1.7931
   XZ=     0.0767   YZ=    -0.4709   ZZ=    36.8288
   Eigenvalues:    28.6362    29.7928    37.0345
     21  H    Isotropic =    31.7811   Anisotropy =     8.8862
   XX=    35.6275   YX=     3.3845   ZX=     0.4063
   XY=     3.6810   YY=    31.4794   ZY=     0.6557
   XZ=     0.5054   YZ=     0.6592   ZZ=    28.2364
   Eigenvalues:    28.0949    29.5432    37.7052
     22  H    Isotropic =    31.3406   Anisotropy =     7.9547
   XX=    28.8317   YX=     0.9302   ZX=    -0.0291
   XY=     0.2606   YY=    32.0709   ZY=     4.6462
   XZ=    -0.5180   YZ=     3.3740   ZZ=    33.1191
   Eigenvalues:    28.0462    29.3318    36.6437
     23  H    Isotropic =    31.3469   Anisotropy =     8.0061
   XX=    29.0426   YX=     0.2967   ZX=     0.6927
   XY=    -0.7396   YY=    35.8960   ZY=    -2.9529
   XZ=     0.7896   YZ=    -1.8505   ZZ=    29.1021
   Eigenvalues:    27.9553    29.4012    36.6843
     24  H    Isotropic =    29.4474   Anisotropy =     9.4061
   XX=    28.8257   YX=     2.3001   ZX=     1.8624
   XY=     2.0684   YY=    28.5163   ZY=     4.6915
   XZ=     1.2728   YZ=     4.9716   ZZ=    31.0001
   Eigenvalues:    24.6053    28.0188    35.7181
     25  H    Isotropic =    29.4813   Anisotropy =     8.5522
   XX=    29.3511   YX=     1.2118   ZX=    -0.8709
   XY=    -0.1316   YY=    34.1076   ZY=    -3.1464
   XZ=    -0.2813   YZ=    -3.1952   ZZ=    24.9852
   Eigenvalues:    23.9632    29.2980    35.1827
     26  H    Isotropic =    30.9275   Anisotropy =    10.1701
   XX=    29.3687   YX=     0.2073   ZX=    -3.3028
   XY=     0.8127   YY=    28.7232   ZY=    -3.2472
   XZ=    -4.4998   YZ=    -2.8085   ZZ=    34.6906
   Eigenvalues:    26.5907    28.4842    37.7075
     27  H    Isotropic =    31.0217   Anisotropy =    10.7403
   XX=    37.0090   YX=     2.5051   ZX=     1.0337
   XY=     3.7511   YY=    29.1635   ZY=     1.0360
   XZ=     0.6499   YZ=    -0.1531   ZZ=    26.8925
   Eigenvalues:    26.7991    28.0840    38.1819
     28  H    Isotropic =    28.8451   Anisotropy =     8.1037
   XX=    28.3061   YX=    -3.1877   ZX=    -1.5618
   XY=    -3.8743   YY=    29.3370   ZY=     1.9901
   XZ=    -2.6280   YZ=     2.7262   ZZ=    28.8923
   Eigenvalues:    25.2523    27.0355    34.2476
     29  H    Isotropic =    29.6141   Anisotropy =     6.5148
   XX=    30.9132   YX=     1.0438   ZX=    -0.8939
   XY=     1.1727   YY=    33.2860   ZY=    -1.4807
   XZ=    -0.3694   YZ=    -1.1961   ZZ=    24.6431
   Eigenvalues:    24.4074    30.4775    33.9573
     30  H    Isotropic =    29.5747   Anisotropy =     7.9854
   XX=    28.9348   YX=    -0.3565   ZX=     1.4506
   XY=    -0.6670   YY=    27.6957   ZY=     3.4531
   XZ=     1.8331   YZ=     5.0366   ZZ=    32.0935
   Eigenvalues:    24.7077    29.1181    34.8983
 End of Minotr F.D. properties file   721 does not exist.
 End of Minotr F.D. properties file   722 does not exist.
 Leave Link 1002 at Wed Oct 19 22:45:04 2011, MaxMem=  128000000 cpu:      84.1
 (Enter /home/foresman/gdv/l1101.exe)
 Using compressed storage, NAtomX=    30.
 Will process     31 centers per pass.
 Leave Link 1101 at Wed Oct 19 22:45:04 2011, MaxMem=  128000000 cpu:       2.1
 (Enter /home/foresman/gdv/l1102.exe)
 Symmetrizing basis deriv contribution to polar:
 IMax=3 JMax=2 DiffMx= 0.00D+00
 Leave Link 1102 at Wed Oct 19 22:45:05 2011, MaxMem=  128000000 cpu:       1.3
 (Enter /home/foresman/gdv/l1110.exe)
 Forming Gx(P) for the SCF density, NAtomX=    30.
 Integral derivatives from FoFJK, PRISM(SPDF).
 Do as many integral derivatives as possible in FoFJK.
 G2DrvN: MDV=     127999656.
 G2DrvN: will do    31 centers at a time, making    1 passes.
 Calling FoFCou, ICntrl=  3107 FMM=F I1Cent=   0 AccDes= 0.00D+00.
 FoFJK:  IHMeth= 1 ICntrl=    3107 DoSepK=F KAlg= 0 I1Cent=   0 FoldK=F
 IRaf=       0 NMat=   1 IRICut=       1 DoRegI=T DoRafI=F ISym2E= 0.
 FoFCou: FMM=F IPFlag=           0 FMFlag=      100000 FMFlg1=           0
         NFxFlg=           0 DoJE=F BraDBF=F KetDBF=F FulRan=T
         wScrn=  0.000000 ICntrl=    3107 IOpCl=  0 I1Cent=           0 NGrid=           0
         NMat0=    1 NMatS0=      1 NMatT0=    0 NMatD0=    1 NMtDS0=    0 NMtDT0=    0
 Symmetry not used in FoFCou.
 End of G2Drv F.D. properties file   721 does not exist.
 End of G2Drv F.D. properties file   722 does not exist.
 Leave Link 1110 at Wed Oct 19 22:45:38 2011, MaxMem=  128000000 cpu:     261.7
 (Enter /home/foresman/gdv/l1002.exe)
 Minotr:  Closed shell wavefunction.
          IDoAtm=111111111111111111111111111111
          Direct CPHF calculation.
          Differentiating once with respect to electric field.
                with respect to dipole field.
          Differentiating once with respect to nuclear coordinates.
          Requested convergence is 1.0D-08 RMS, and 1.0D-07 maximum.
          Secondary convergence is 1.0D-12 RMS, and 1.0D-12 maximum.
          NewPWx=T KeepS1=F KeepF1=F KeepIn=T MapXYZ=F SortEE=F KeepMc=T.
          MDV=     127999545 using IRadAn=       2.
 Generate precomputed XC quadrature information.
 Keep R1 ints in memory in canonical form, NReq=67619516.
 FoFCou: FMM=F IPFlag=           0 FMFlag=           0 FMFlg1=           0
         NFxFlg=           0 DoJE=F BraDBF=F KetDBF=F FulRan=T
         wScrn=  0.000000 ICntrl=     600 IOpCl=  0 I1Cent=           0 NGrid=           0
         NMat0=    1 NMatS0=  11476 NMatT0=    0 NMatD0=    1 NMtDS0=    0 NMtDT0=    0
 Symmetry not used in FoFCou.
          Solving linear equations simultaneously, MaxMat=       0.
          There are    93 degrees of freedom in the 1st order CPHF.  IDoFFX=5 NUNeed=    93.
     90 vectors produced by pass  0 Test12= 5.48D-15 1.08D-09 XBig12= 7.43D+01 3.61D+00.
 AX will form    90 AO Fock derivatives at one time.
     90 vectors produced by pass  1 Test12= 5.48D-15 1.08D-09 XBig12= 1.09D+01 9.38D-01.
     90 vectors produced by pass  2 Test12= 5.48D-15 1.08D-09 XBig12= 4.21D-02 1.96D-02.
     90 vectors produced by pass  3 Test12= 5.48D-15 1.08D-09 XBig12= 5.78D-05 9.14D-04.
     90 vectors produced by pass  4 Test12= 5.48D-15 1.08D-09 XBig12= 4.51D-08 2.24D-05.
     42 vectors produced by pass  5 Test12= 5.48D-15 1.08D-09 XBig12= 2.59D-11 4.97D-07.
      3 vectors produced by pass  6 Test12= 5.48D-15 1.08D-09 XBig12= 1.13D-14 9.50D-09.
 InvSVY:  IOpt=1 It=  1 EMax= 7.11D-15
 Solved reduced A of dimension   495 with    93 vectors.
 FullF1:  Do perturbations    1 to     3.
 Isotropic polarizability for W=    0.000000      102.83 Bohr**3.
 Dipole-magnetic dipole polarizability for W=    0.000000:
                 1             2             3 
      1  -0.182627D+01 -0.114250D+02  0.901288D+01
      2   0.955473D+01  0.595217D+01 -0.100166D+02
      3   0.153897D+02  0.101144D+02 -0.414838D+01
 DQ contribution to OR G for W=    0.000000:
                 1             2             3 
      1  -0.958224D+00 -0.314306D+02  0.270865D+02
      2   0.271288D+02  0.379117D+01 -0.554233D+02
      3   0.108360D+02  0.680156D+02 -0.283295D+01
 Optical Rotation G' tensor for W=    0.000000:
                 1             2             3 
      1   0.662339D+00 -0.701419D-01 -0.136032D+01
      2  -0.701419D-01 -0.203953D+01  0.154960D+01
      3  -0.136032D+01  0.154960D+01  0.135472D+01
 OR G Eigenvalues:    -2.7011    -0.0861     2.7647  Iso=     0.0075
 Eigenvectors:
   (1)  -0.140461   0.908259  -0.394127
   (2)   0.836449   0.321844   0.443587
   (3)  -0.529740   0.267361   0.804919
 w=    0.000000 a.u., Optical Rotation Beta=      0.0075 au.
 Molar Mass =    187.2382 grams/mole, [Alpha]D (static) =        1.55 deg.
 AAT (total):
  0.0147 -0.0859  0.1298
  0.0261 -0.0013 -0.3597
 -0.1058  0.3508 -0.0060
  0.0603 -0.2083  0.0964
  0.1652 -0.1081  0.1399
  0.0092 -0.2408  0.0564
 -0.0507  0.1174  0.1814
 -0.1316  0.1017  0.2644
 -0.0677 -0.1576 -0.0715
 -0.0055  0.0475 -0.1719
 -0.0217 -0.0393  0.1685
  0.1079 -0.0324  0.0487
  0.0035  0.1714 -0.2834
 -0.1733  0.0883  0.2679
  0.5381 -0.3673 -0.0576
 -0.0303  0.0926 -0.8568
  0.0148 -0.1125  0.2199
  0.2682  0.0582  0.0913
  0.0244 -0.2569  1.1022
  0.2364  0.1015 -0.0832
 -1.0666 -0.2830 -0.1296
  0.0455  0.0246  0.4320
 -0.0061  0.0939 -0.4470
 -0.0512  0.4375 -0.0247
 -0.0070 -0.1435 -0.0588
  0.0981 -0.0386  0.1450
  0.0573 -0.1902  0.0709
 -0.0240  0.0952 -0.0844
 -0.2294 -0.0757 -0.3325
 -0.0477  0.0765 -0.0384
 -0.0915 -0.0835  0.2734
  0.0089  0.2204  0.5897
 -0.4184 -0.9664 -0.1871
  0.0256  0.2000 -0.0763
 -0.1065 -0.0514  0.2471
  0.0994 -0.2033  0.0881
  0.2693 -0.1849 -0.6595
  0.3978 -0.4608 -0.9659
  0.4450  1.0821  0.2241
 -0.1749  0.0291  0.2572
 -0.2208  0.2755  0.3488
  0.0726 -0.1478 -0.0750
 -0.0042 -0.0999  0.0104
 -0.0608  0.0073 -0.2667
  0.0029  0.2364 -0.0016
 -0.0655  0.0310  0.0262
 -0.0276  0.2138  0.1116
 -0.1950 -0.1455 -0.0975
 -0.0489  0.0852 -0.2078
  0.0090 -0.0898  0.0932
  0.2343 -0.0217  0.1629
  0.0130  0.1312  0.0733
  0.0245  0.0137 -0.2638
  0.0230  0.2282 -0.0273
  0.0398  0.0248 -0.2515
 -0.1031 -0.0040  0.1949
  0.1771  0.0683 -0.0584
  0.0475 -0.0793 -0.0012
  0.1320 -0.1154 -0.0342
 -0.1537 -0.2771  0.0198
 -0.0160  0.0643 -0.1330
  0.0043 -0.0072 -0.2448
 -0.0646  0.2637  0.0208
 -0.0544 -0.0747  0.0575
  0.1857 -0.0552 -0.0062
  0.1021 -0.2344  0.1571
  0.0729  0.0138  0.0413
 -0.1914  0.0946  0.1792
 -0.0314 -0.0758 -0.2130
  0.0025  0.1531 -0.0347
 -0.1545 -0.0438  0.0880
 -0.2056  0.1311 -0.0431
 -0.0596 -0.0738 -0.0983
  0.1524 -0.0270 -0.0932
  0.0561  0.0225  0.1437
  0.0118 -0.1469  0.0110
  0.1452 -0.0589  0.0340
 -0.0277  0.2558  0.0360
 -0.0215  0.1792 -0.0525
 -0.0901  0.0736  0.2160
  0.0455 -0.1623 -0.0526
  0.0057 -0.0868  0.1493
  0.0480  0.0369  0.0168
 -0.0226  0.0002 -0.0498
 -0.0576  0.1052  0.1629
 -0.1275 -0.0013 -0.1168
 -0.0237  0.0390  0.1316
  0.0395 -0.1217  0.0254
  0.1078 -0.0264 -0.0158
  0.1438  0.1305 -0.0964
 End of Minotr F.D. properties file   721 does not exist.
 End of Minotr F.D. properties file   722 does not exist.
 Leave Link 1002 at Wed Oct 19 22:46:07 2011, MaxMem=  128000000 cpu:     233.5
 (Enter /home/foresman/gdv/l601.exe)
 Copying SCF densities to generalized density rwf, IOpCl= 0 IROHF=0.

 **********************************************************************

            Population analysis using the SCF density.

 **********************************************************************

 Orbital symmetries:
       Occupied  (A) (A) (A) (A) (A) (A) (A) (A) (A) (A) (A) (A)
                 (A) (A) (A) (A) (A) (A) (A) (A) (A) (A) (A) (A)
                 (A) (A) (A) (A) (A) (A) (A) (A) (A) (A) (A) (A)
                 (A) (A) (A) (A) (A) (A) (A) (A) (A) (A) (A) (A)
                 (A) (A) (A)
       Virtual   (A) (A) (A) (A) (A) (A) (A) (A) (A) (A) (A) (A)
                 (A) (A) (A) (A) (A) (A) (A) (A) (A) (A) (A) (A)
                 (A) (A) (A) (A) (A) (A) (A) (A) (A) (A) (A) (A)
                 (A) (A) (A) (A) (A) (A) (A) (A) (A) (A) (A) (A)
                 (A) (A) (A) (A) (A) (A) (A) (A) (A) (A) (A) (A)
                 (A) (A) (A) (A) (A) (A) (A) (A) (A) (A) (A) (A)
                 (A) (A) (A) (A) (A) (A) (A) (A) (A) (A) (A) (A)
                 (A) (A) (A) (A) (A) (A) (A) (A) (A) (A) (A) (A)
                 (A) (A) (A) (A)
 The electronic state is 1-A.
 Alpha  occ. eigenvalues --  -19.06156 -19.02713 -19.00039 -14.28255 -10.26370
 Alpha  occ. eigenvalues --  -10.18981 -10.18385 -10.16640 -10.16260 -10.13237
 Alpha  occ. eigenvalues --  -10.11122 -10.10358 -10.10311  -1.08213  -1.01217
 Alpha  occ. eigenvalues --   -0.99862  -0.94192  -0.81150  -0.78113  -0.74550
 Alpha  occ. eigenvalues --   -0.69184  -0.68817  -0.66055  -0.60556  -0.58415
 Alpha  occ. eigenvalues --   -0.54961  -0.50632  -0.49833  -0.48538  -0.45668
 Alpha  occ. eigenvalues --   -0.45276  -0.44762  -0.43792  -0.42907  -0.42205
 Alpha  occ. eigenvalues --   -0.41231  -0.39348  -0.38967  -0.38220  -0.37904
 Alpha  occ. eigenvalues --   -0.37039  -0.36602  -0.36291  -0.34207  -0.34133
 Alpha  occ. eigenvalues --   -0.32349  -0.31595  -0.27106  -0.25758  -0.24788
 Alpha  occ. eigenvalues --   -0.23222
 Alpha virt. eigenvalues --    0.05166   0.08195   0.10280   0.11509   0.12677
 Alpha virt. eigenvalues --    0.13429   0.14854   0.15720   0.16587   0.16851
 Alpha virt. eigenvalues --    0.17542   0.18094   0.18902   0.19414   0.19580
 Alpha virt. eigenvalues --    0.20057   0.21039   0.21569   0.21780   0.23295
 Alpha virt. eigenvalues --    0.23818   0.24463   0.24832   0.25238   0.26331
 Alpha virt. eigenvalues --    0.27990   0.28489   0.28853   0.30060   0.41704
 Alpha virt. eigenvalues --    0.48588   0.64792   0.65502   0.66027   0.67035
 Alpha virt. eigenvalues --    0.68526   0.68953   0.69880   0.71638   0.74047
 Alpha virt. eigenvalues --    0.74340   0.75055   0.75783   0.76089   0.77245
 Alpha virt. eigenvalues --    0.80101   0.82029   0.83028   0.85987   0.87251
 Alpha virt. eigenvalues --    0.88384   0.92673   0.93181   0.95454   0.96607
 Alpha virt. eigenvalues --    0.98283   1.00493   1.01531   1.02169   1.03808
 Alpha virt. eigenvalues --    1.06291   1.06859   1.07901   1.08356   1.09373
 Alpha virt. eigenvalues --    1.09716   1.10250   1.10812   1.11893   1.12321
 Alpha virt. eigenvalues --    1.13444   1.15323   1.16058   1.17927   1.22152
 Alpha virt. eigenvalues --    1.28264   1.43690   1.52790   1.55348   1.56956
 Alpha virt. eigenvalues --    1.60559   1.63445   1.65991   1.71811   1.72340
 Alpha virt. eigenvalues --    1.73533   1.77158   1.79158   1.86989   1.94432
 Alpha virt. eigenvalues --    1.98600   1.98735   2.08994   2.13577   2.27530
 Alpha virt. eigenvalues --    2.34729   2.83205   3.11682   3.31093   3.40239
          Condensed to atoms (all electrons):
              1          2          3          4          5          6
     1  C    5.288715   0.248921   0.249306   0.289259   0.195791  -0.050402
     2  C    0.248921   5.473391  -0.084458  -0.081525  -0.035944  -0.008023
     3  C    0.249306  -0.084458   5.472801  -0.082061  -0.036086  -0.007801
     4  C    0.289259  -0.081525  -0.082061   5.352587  -0.038849   0.003829
     5  O    0.195791  -0.035944  -0.036086  -0.038849   8.328178   0.231261
     6  C   -0.050402  -0.008023  -0.007801   0.003829   0.231261   4.286665
     7  O    0.001200  -0.009556  -0.009484   0.000063  -0.045605   0.470706
     8  N    0.002747  -0.000296  -0.000275  -0.000044  -0.078323   0.197116
     9  C   -0.000073   0.000004   0.000005   0.000001   0.001553  -0.048647
    10  C    0.000001   0.000000   0.000000   0.000000  -0.000025   0.006098
    11  C   -0.000004   0.000000   0.000000   0.000000   0.000256   0.002865
    12  C   -0.000065   0.000027   0.000015  -0.000045   0.008527  -0.029231
    13  O    0.000000   0.000000   0.000000   0.000000   0.000000  -0.000046
    14  H    0.000000   0.000000   0.000000   0.000000  -0.000005  -0.000117
    15  H   -0.035758   0.341095   0.000818  -0.000442   0.001564   0.000338
    16  H   -0.040275   0.358314   0.004335  -0.003134   0.001018   0.000486
    17  H   -0.036632   0.343359  -0.004098   0.003584  -0.003604   0.001954
    18  H   -0.035864   0.000829   0.340634  -0.000424   0.001567   0.000331
    19  H   -0.036511  -0.004037   0.343509   0.003569  -0.003558   0.001938
    20  H   -0.040221   0.004334   0.358269  -0.003103   0.001046   0.000454
    21  H   -0.044562   0.001150   0.001195   0.350805   0.001892  -0.000039
    22  H   -0.038466   0.004521  -0.003518   0.360489   0.001974  -0.000007
    23  H   -0.038383  -0.003555   0.004515   0.360513   0.001934  -0.000002
    24  H    0.000002  -0.000001   0.000000   0.000000  -0.000004  -0.001418
    25  H    0.000001   0.000001  -0.000002   0.000000   0.000041  -0.000206
    26  H    0.000000   0.000000   0.000000   0.000000   0.000000  -0.000113
    27  H    0.000000   0.000000   0.000000   0.000000   0.000000  -0.000034
    28  H    0.000000   0.000000   0.000000   0.000000   0.000000  -0.000021
    29  H   -0.000067  -0.000012   0.000012   0.000033   0.004842  -0.001277
    30  H   -0.000003   0.000002  -0.000005   0.000001   0.000702  -0.002119
              7          8          9         10         11         12
     1  C    0.001200   0.002747  -0.000073   0.000001  -0.000004  -0.000065
     2  C   -0.009556  -0.000296   0.000004   0.000000   0.000000   0.000027
     3  C   -0.009484  -0.000275   0.000005   0.000000   0.000000   0.000015
     4  C    0.000063  -0.000044   0.000001   0.000000   0.000000  -0.000045
     5  O   -0.045605  -0.078323   0.001553  -0.000025   0.000256   0.008527
     6  C    0.470706   0.197116  -0.048647   0.006098   0.002865  -0.029231
     7  O    8.141257  -0.070897   0.004720   0.000179  -0.000031   0.001163
     8  N   -0.070897   7.423063   0.242832  -0.056149  -0.059338   0.230410
     9  C    0.004720   0.242832   5.214536   0.243063  -0.077463  -0.081887
    10  C    0.000179  -0.056149   0.243063   5.631163   0.169821  -0.104128
    11  C   -0.000031  -0.059338  -0.077463   0.169821   5.309355   0.184345
    12  C    0.001163   0.230410  -0.081887  -0.104128   0.184345   5.351069
    13  O    0.000000  -0.001177   0.003232  -0.051359   0.274744  -0.041646
    14  H   -0.000002   0.005562   0.005299  -0.004739  -0.060902  -0.004604
    15  H    0.000080   0.000001   0.000000   0.000000   0.000000   0.000000
    16  H    0.000030  -0.000006   0.000000   0.000000   0.000000  -0.000003
    17  H    0.023472   0.000144   0.000002   0.000000   0.000000  -0.000008
    18  H    0.000083   0.000001   0.000000   0.000000   0.000000   0.000000
    19  H    0.023447   0.000139   0.000002   0.000000   0.000000  -0.000012
    20  H    0.000031  -0.000009   0.000000   0.000000   0.000000   0.000005
    21  H    0.000002   0.000000   0.000000   0.000000   0.000000   0.000001
    22  H    0.000001  -0.000006   0.000000   0.000000   0.000000   0.000027
    23  H    0.000001  -0.000005   0.000000   0.000000   0.000000  -0.000002
    24  H    0.000718  -0.042991   0.365195  -0.044385   0.000265   0.003145
    25  H    0.004329  -0.038421   0.371811  -0.029742   0.003951   0.001959
    26  H    0.000000   0.001239  -0.037611   0.329521  -0.029994   0.005257
    27  H    0.000000   0.002187  -0.035076   0.368715  -0.034057   0.005156
    28  H    0.000000   0.002280   0.004247  -0.047784   0.382612  -0.043392
    29  H    0.000017  -0.035404   0.002217   0.005840  -0.032730   0.360688
    30  H    0.000014  -0.041534   0.003367   0.001277  -0.032332   0.330328
             13         14         15         16         17         18
     1  C    0.000000   0.000000  -0.035758  -0.040275  -0.036632  -0.035864
     2  C    0.000000   0.000000   0.341095   0.358314   0.343359   0.000829
     3  C    0.000000   0.000000   0.000818   0.004335  -0.004098   0.340634
     4  C    0.000000   0.000000  -0.000442  -0.003134   0.003584  -0.000424
     5  O    0.000000  -0.000005   0.001564   0.001018  -0.003604   0.001567
     6  C   -0.000046  -0.000117   0.000338   0.000486   0.001954   0.000331
     7  O    0.000000  -0.000002   0.000080   0.000030   0.023472   0.000083
     8  N   -0.001177   0.005562   0.000001  -0.000006   0.000144   0.000001
     9  C    0.003232   0.005299   0.000000   0.000000   0.000002   0.000000
    10  C   -0.051359  -0.004739   0.000000   0.000000   0.000000   0.000000
    11  C    0.274744  -0.060902   0.000000   0.000000   0.000000   0.000000
    12  C   -0.041646  -0.004604   0.000000  -0.000003  -0.000008   0.000000
    13  O    8.134705   0.247693   0.000000   0.000000   0.000000   0.000000
    14  H    0.247693   0.467826   0.000000   0.000000   0.000000   0.000000
    15  H    0.000000   0.000000   0.551384  -0.024584  -0.020728   0.001178
    16  H    0.000000   0.000000  -0.024584   0.535036  -0.023437  -0.000069
    17  H    0.000000   0.000000  -0.020728  -0.023437   0.484322   0.000223
    18  H    0.000000   0.000000   0.001178  -0.000069   0.000223   0.552443
    19  H    0.000000   0.000000   0.000215   0.000009   0.002930  -0.020712
    20  H    0.000000   0.000000  -0.000069  -0.000098   0.000008  -0.024601
    21  H    0.000000   0.000000   0.001642   0.000122   0.000009   0.001659
    22  H    0.000000   0.000000  -0.000081  -0.000048  -0.000085   0.000155
    23  H    0.000000   0.000000   0.000154   0.003748  -0.000046  -0.000081
    24  H    0.001368  -0.000255   0.000000   0.000000   0.000004   0.000000
    25  H    0.000017   0.000103   0.000000   0.000000  -0.000003   0.000000
    26  H    0.001799   0.000039   0.000000   0.000000   0.000000   0.000000
    27  H    0.001945  -0.000581   0.000000   0.000000   0.000000   0.000000
    28  H   -0.030913   0.005765   0.000000   0.000000   0.000000   0.000000
    29  H    0.001840  -0.000831   0.000000   0.000016   0.000002   0.000000
    30  H    0.001741   0.000290   0.000000   0.000000   0.000000   0.000000
             19         20         21         22         23         24
     1  C   -0.036511  -0.040221  -0.044562  -0.038466  -0.038383   0.000002
     2  C   -0.004037   0.004334   0.001150   0.004521  -0.003555  -0.000001
     3  C    0.343509   0.358269   0.001195  -0.003518   0.004515   0.000000
     4  C    0.003569  -0.003103   0.350805   0.360489   0.360513   0.000000
     5  O   -0.003558   0.001046   0.001892   0.001974   0.001934  -0.000004
     6  C    0.001938   0.000454  -0.000039  -0.000007  -0.000002  -0.001418
     7  O    0.023447   0.000031   0.000002   0.000001   0.000001   0.000718
     8  N    0.000139  -0.000009   0.000000  -0.000006  -0.000005  -0.042991
     9  C    0.000002   0.000000   0.000000   0.000000   0.000000   0.365195
    10  C    0.000000   0.000000   0.000000   0.000000   0.000000  -0.044385
    11  C    0.000000   0.000000   0.000000   0.000000   0.000000   0.000265
    12  C   -0.000012   0.000005   0.000001   0.000027  -0.000002   0.003145
    13  O    0.000000   0.000000   0.000000   0.000000   0.000000   0.001368
    14  H    0.000000   0.000000   0.000000   0.000000   0.000000  -0.000255
    15  H    0.000215  -0.000069   0.001642  -0.000081   0.000154   0.000000
    16  H    0.000009  -0.000098   0.000122  -0.000048   0.003748   0.000000
    17  H    0.002930   0.000008   0.000009  -0.000085  -0.000046   0.000004
    18  H   -0.020712  -0.024601   0.001659   0.000155  -0.000081   0.000000
    19  H    0.483869  -0.023401   0.000011  -0.000046  -0.000085  -0.000001
    20  H   -0.023401   0.534950   0.000120   0.003733  -0.000049   0.000000
    21  H    0.000011   0.000120   0.547827  -0.023831  -0.023823   0.000000
    22  H   -0.000046   0.003733  -0.023831   0.523801  -0.025824   0.000000
    23  H   -0.000085  -0.000049  -0.023823  -0.025824   0.523922   0.000000
    24  H   -0.000001   0.000000   0.000000   0.000000   0.000000   0.548507
    25  H    0.000011   0.000000   0.000000   0.000000   0.000000  -0.038725
    26  H    0.000000   0.000000   0.000000   0.000000   0.000000   0.003457
    27  H    0.000000   0.000000   0.000000   0.000000   0.000000  -0.001744
    28  H    0.000000   0.000000   0.000000   0.000000   0.000000  -0.000070
    29  H    0.000000  -0.000001   0.000000  -0.000012   0.000111   0.000080
    30  H    0.000003   0.000007   0.000000   0.000022  -0.000005  -0.000252
             25         26         27         28         29         30
     1  C    0.000001   0.000000   0.000000   0.000000  -0.000067  -0.000003
     2  C    0.000001   0.000000   0.000000   0.000000  -0.000012   0.000002
     3  C   -0.000002   0.000000   0.000000   0.000000   0.000012  -0.000005
     4  C    0.000000   0.000000   0.000000   0.000000   0.000033   0.000001
     5  O    0.000041   0.000000   0.000000   0.000000   0.004842   0.000702
     6  C   -0.000206  -0.000113  -0.000034  -0.000021  -0.001277  -0.002119
     7  O    0.004329   0.000000   0.000000   0.000000   0.000017   0.000014
     8  N   -0.038421   0.001239   0.002187   0.002280  -0.035404  -0.041534
     9  C    0.371811  -0.037611  -0.035076   0.004247   0.002217   0.003367
    10  C   -0.029742   0.329521   0.368715  -0.047784   0.005840   0.001277
    11  C    0.003951  -0.029994  -0.034057   0.382612  -0.032730  -0.032332
    12  C    0.001959   0.005257   0.005156  -0.043392   0.360688   0.330328
    13  O    0.000017   0.001799   0.001945  -0.030913   0.001840   0.001741
    14  H    0.000103   0.000039  -0.000581   0.005765  -0.000831   0.000290
    15  H    0.000000   0.000000   0.000000   0.000000   0.000000   0.000000
    16  H    0.000000   0.000000   0.000000   0.000000   0.000016   0.000000
    17  H   -0.000003   0.000000   0.000000   0.000000   0.000002   0.000000
    18  H    0.000000   0.000000   0.000000   0.000000   0.000000   0.000000
    19  H    0.000011   0.000000   0.000000   0.000000   0.000000   0.000003
    20  H    0.000000   0.000000   0.000000   0.000000  -0.000001   0.000007
    21  H    0.000000   0.000000   0.000000   0.000000   0.000000   0.000000
    22  H    0.000000   0.000000   0.000000   0.000000  -0.000012   0.000022
    23  H    0.000000   0.000000   0.000000   0.000000   0.000111  -0.000005
    24  H   -0.038725   0.003457  -0.001744  -0.000070   0.000080  -0.000252
    25  H    0.502656  -0.004641   0.000528  -0.000021  -0.000114   0.000412
    26  H   -0.004641   0.550117  -0.020708  -0.000417  -0.000111  -0.000259
    27  H    0.000528  -0.020708   0.497128  -0.001001  -0.000069  -0.000179
    28  H   -0.000021  -0.000417  -0.001001   0.512844  -0.000826   0.001003
    29  H   -0.000114  -0.000111  -0.000069  -0.000826   0.495915  -0.032321
    30  H    0.000412  -0.000259  -0.000179   0.001003  -0.032321   0.566343
 Mulliken charges:
              1
     1  C    0.121342
     2  C   -0.548538
     3  C   -0.547624
     4  C   -0.515106
     5  O   -0.540143
     6  C    0.945461
     7  O   -0.535937
     8  N   -0.682845
     9  C   -0.181328
    10  C   -0.417366
    11  C   -0.001361
    12  C   -0.177100
    13  O   -0.543943
    14  H    0.339460
    15  H    0.183193
    16  H    0.188541
    17  H    0.228628
    18  H    0.182649
    19  H    0.228710
    20  H    0.188594
    21  H    0.185819
    22  H    0.197200
    23  H    0.196959
    24  H    0.207105
    25  H    0.226056
    26  H    0.202424
    27  H    0.217789
    28  H    0.215696
    29  H    0.232165
    30  H    0.203499
 Sum of Mulliken charges =   0.00000
 Mulliken charges with hydrogens summed into heavy atoms:
              1
     1  C    0.121342
     2  C    0.051824
     3  C    0.052329
     4  C    0.064873
     5  O   -0.540143
     6  C    0.945461
     7  O   -0.535937
     8  N   -0.682845
     9  C    0.251832
    10  C    0.002847
    11  C    0.214335
    12  C    0.258564
    13  O   -0.204482
 Sum of Mulliken charges with hydrogens summed into heavy atoms =   0.00000
 APT charges:
              1
     1  C    0.651236
     2  C   -0.108008
     3  C   -0.107428
     4  C   -0.028945
     5  O   -0.962406
     6  C    1.430087
     7  O   -0.778951
     8  N   -0.876571
     9  C    0.336498
    10  C   -0.020809
    11  C    0.446748
    12  C    0.250462
    13  O   -0.500557
    14  H    0.217553
    15  H    0.000823
    16  H    0.001424
    17  H    0.078870
    18  H    0.000363
    19  H    0.078849
    20  H    0.001586
    21  H   -0.000611
    22  H    0.009251
    23  H    0.009013
    24  H   -0.051450
    25  H   -0.008205
    26  H   -0.011650
    27  H    0.007662
    28  H   -0.024627
    29  H    0.009309
    30  H   -0.049518
 Sum of APT charges =   0.00000
 APT charges with hydrogens summed into heavy atoms:
              1
     1  C    0.651236
     2  C   -0.026891
     3  C   -0.026629
     4  C   -0.011292
     5  O   -0.962406
     6  C    1.430087
     7  O   -0.778951
     8  N   -0.876571
     9  C    0.276843
    10  C   -0.024796
    11  C    0.422121
    12  C    0.210253
    13  O   -0.283004
 Sum of APT charges with hydrogens summed into heavy atoms =   0.00000
 Electronic spatial extent (au):  <R**2>=           3092.5986
 Charge=              0.0000 electrons
 Dipole moment (field-independent basis, Debye):
    X=             -0.0165    Y=             -0.7187    Z=             -1.2603  Tot=              1.4510
 Quadrupole moment (field-independent basis, Debye-Ang):
   XX=            -76.8344   YY=            -84.6433   ZZ=            -76.7567
   XY=              7.6899   XZ=             -3.8423   YZ=              0.7420
 Traceless Quadrupole moment (field-independent basis, Debye-Ang):
   XX=              2.5771   YY=             -5.2318   ZZ=              2.6548
   XY=              7.6899   XZ=             -3.8423   YZ=              0.7420
 Octapole moment (field-independent basis, Debye-Ang**2):
  XXX=            -31.8522  YYY=             -7.0666  ZZZ=              7.6968  XYY=              4.3370
  XXY=             19.5981  XXZ=            -15.8449  XZZ=              7.3784  YZZ=             -0.3783
  YYZ=             -5.5831  XYZ=             10.8680
 Hexadecapole moment (field-independent basis, Debye-Ang**3):
 XXXX=          -3074.5699 YYYY=           -645.0926 ZZZZ=           -341.3575 XXXY=             65.3344
 XXXZ=            -62.1438 YYYX=              4.0249 YYYZ=             -4.5546 ZZZX=             24.4195
 ZZZY=             -0.5878 XXYY=           -636.8208 XXZZ=           -571.5213 YYZZ=           -164.4095
 XXYZ=             37.8966 YYXZ=            -10.2756 ZZXY=              0.2990
 N-N= 8.794696943252D+02 E-N=-3.228263676115D+03  KE= 6.248517939162D+02
  Exact polarizability: 126.823   0.360  94.832  -3.193   3.125  86.830
 Approx polarizability: 149.537  -7.079 143.589  -3.571   8.734 122.280
 Calculating spin-rotation constants.
 Leave Link  601 at Wed Oct 19 22:46:11 2011, MaxMem=  128000000 cpu:      32.1
 (Enter /home/foresman/gdv/l701.exe)
 Compute integral second derivatives.
 ... and contract with generalized density number  0.
 Leave Link  701 at Wed Oct 19 22:46:11 2011, MaxMem=  128000000 cpu:       1.3
 (Enter /home/foresman/gdv/l702.exe)
 L702 exits ... SP integral derivatives will be done elsewhere.
 Leave Link  702 at Wed Oct 19 22:46:11 2011, MaxMem=  128000000 cpu:       0.3
 (Enter /home/foresman/gdv/l703.exe)
 Compute integral second derivatives, UseDBF=F ICtDFT=           0.
 Integral derivatives from FoFJK, PRISM(SPDF).
 Calling FoFJK, ICntrl=    100127 FMM=F ISym2X=0 I1Cent= 0 IOpClX= 0 NMat=1 NMatS=1 NMatT=0.
 FoFJK:  IHMeth= 1 ICntrl=  100127 DoSepK=F KAlg= 0 I1Cent=   0 FoldK=F
 IRaf=       0 NMat=   1 IRICut=       1 DoRegI=T DoRafI=F ISym2E= 0.
 FoFCou: FMM=F IPFlag=           0 FMFlag=      100000 FMFlg1=         800
         NFxFlg=           0 DoJE=F BraDBF=F KetDBF=F FulRan=T
         wScrn=  0.000000 ICntrl=  100127 IOpCl=  0 I1Cent=           0 NGrid=           0
         NMat0=    1 NMatS0=      1 NMatT0=    0 NMatD0=    1 NMtDS0=    0 NMtDT0=    0
 Symmetry not used in FoFCou.
 Leave Link  703 at Wed Oct 19 22:46:45 2011, MaxMem=  128000000 cpu:     275.0
 (Enter /home/foresman/gdv/l716.exe)
 Dipole        =-6.49206845D-03-2.82768769D-01-4.95853820D-01
 Polarizability= 1.26823087D+02 3.59794983D-01 9.48324577D+01
                -3.19258216D+00 3.12450623D+00 8.68297871D+01
 AAT           = 1.47058238D-02-8.58629032D-02 1.29845072D-01
                 2.60718568D-02-1.34998655D-03-3.59722362D-01
                -1.05842643D-01 3.50842440D-01-6.03972298D-03
                 6.03343400D-02-2.08345401D-01 9.63872943D-02
                 1.65239968D-01-1.08097975D-01 1.39947454D-01
                 9.15778520D-03-2.40830026D-01 5.64004117D-02
                -5.07412532D-02 1.17445673D-01 1.81437467D-01
                -1.31555699D-01 1.01717978D-01 2.64367792D-01
                -6.77407781D-02-1.57570411D-01-7.15207978D-02
                -5.53119626D-03 4.74788632D-02-1.71866775D-01
                -2.17432290D-02-3.92793287D-02 1.68475601D-01
                 1.07887171D-01-3.23535022D-02 4.87116945D-02
                 3.49250641D-03 1.71445250D-01-2.83438405D-01
                -1.73281055D-01 8.83046577D-02 2.67937797D-01
                 5.38102942D-01-3.67320369D-01-5.75992672D-02
                -3.02560728D-02 9.25927432D-02-8.56801053D-01
                 1.48150994D-02-1.12505303D-01 2.19894676D-01
                 2.68176201D-01 5.81516374D-02 9.13164799D-02
                 2.44258359D-02-2.56856434D-01 1.10215400D+00
                 2.36428511D-01 1.01477955D-01-8.31967664D-02
                -1.06662562D+00-2.83030195D-01-1.29586065D-01
                 4.55109427D-02 2.46266584D-02 4.31983319D-01
                -6.07756894D-03 9.38502963D-02-4.47028733D-01
                -5.11950558D-02 4.37513267D-01-2.47169177D-02
                -7.00728625D-03-1.43540782D-01-5.87650002D-02
                 9.81000189D-02-3.86251919D-02 1.44979916D-01
                 5.73332457D-02-1.90218100D-01 7.09443984D-02
                -2.40341680D-02 9.51731768D-02-8.44190952D-02
                -2.29395784D-01-7.56749438D-02-3.32543301D-01
                -4.77466766D-02 7.65257243D-02-3.83857427D-02
                -9.14841354D-02-8.34561255D-02 2.73368643D-01
                 8.92698500D-03 2.20404525D-01 5.89710929D-01
                -4.18423480D-01-9.66350658D-01-1.87065740D-01
                 2.55676663D-02 2.00018140D-01-7.63210127D-02
                -1.06497315D-01-5.13525033D-02 2.47074529D-01
                 9.94286517D-02-2.03294706D-01 8.81007113D-02
                 2.69315979D-01-1.84873244D-01-6.59455635D-01
                 3.97802925D-01-4.60818344D-01-9.65863411D-01
                 4.45002284D-01 1.08212489D+00 2.24055322D-01
                -1.74941305D-01 2.91468450D-02 2.57163736D-01
                -2.20777459D-01 2.75489558D-01 3.48762987D-01
                 7.25583358D-02-1.47775062D-01-7.50346831D-02
                -4.18885719D-03-9.99134790D-02 1.03647530D-02
                -6.07823842D-02 7.34294938D-03-2.66661134D-01
                 2.90413183D-03 2.36404561D-01-1.60234629D-03
                -6.55411747D-02 3.10001986D-02 2.61904290D-02
                -2.76139443D-02 2.13759953D-01 1.11577072D-01
                -1.95040669D-01-1.45451291D-01-9.74684108D-02
                -4.89139180D-02 8.52005444D-02-2.07760262D-01
                 9.00047784D-03-8.97660359D-02 9.31615936D-02
                 2.34322265D-01-2.17273939D-02 1.62904298D-01
                 1.29835128D-02 1.31171168D-01 7.33499228D-02
                 2.44965169D-02 1.37396837D-02-2.63816667D-01
                 2.29822215D-02 2.28156751D-01-2.73283448D-02
                 3.98393614D-02 2.47816254D-02-2.51525362D-01
                -1.03137709D-01-3.95071486D-03 1.94932240D-01
                 1.77112600D-01 6.83223260D-02-5.83661600D-02
                 4.75458389D-02-7.93240851D-02-1.22108761D-03
                 1.31956814D-01-1.15416984D-01-3.42190314D-02
                -1.53662089D-01-2.77071086D-01 1.97767749D-02
                -1.59671503D-02 6.42852124D-02-1.32972630D-01
                 4.28500955D-03-7.20029668D-03-2.44833308D-01
                -6.46233441D-02 2.63650045D-01 2.07733686D-02
                -5.44104375D-02-7.47455696D-02 5.74684351D-02
                 1.85675884D-01-5.52260475D-02-6.21679720D-03
                 1.02082153D-01-2.34431529D-01 1.57110427D-01
                 7.28992996D-02 1.38048348D-02 4.13047093D-02
                -1.91360475D-01 9.46487952D-02 1.79249467D-01
                -3.13941657D-02-7.57887517D-02-2.12990069D-01
                 2.45433713D-03 1.53090884D-01-3.47033633D-02
                -1.54464817D-01-4.37560682D-02 8.79855238D-02
                -2.05557518D-01 1.31137176D-01-4.30795656D-02
                -5.95890675D-02-7.37512740D-02-9.82729143D-02
                 1.52382745D-01-2.70217921D-02-9.31982795D-02
                 5.61273210D-02 2.25311791D-02 1.43743564D-01
                 1.18253085D-02-1.46932318D-01 1.09556350D-02
                 1.45191679D-01-5.88967456D-02 3.40060727D-02
                -2.76819554D-02 2.55827573D-01 3.60350870D-02
                -2.15052031D-02 1.79182512D-01-5.24611004D-02
                -9.01117211D-02 7.36181113D-02 2.15989157D-01
[...]
 ,0.00000253,-0.00001970,0.00001056,0.00002015,-0.00000713,0.00000481,-
 0.00001078,-0.00000313,-0.00000202,-0.00000798,0.00000061,-0.00000151,
 -0.00973882,0.06573099,0.00029305,0.00008268,-0.00003782,-0.00005761,-
 0.00002164,0.00000145,-0.00006033,-0.00001803,0.00000729,-0.00003680,-
 0.00002074,0.00000712,-0.00061321,-0.00024059,-0.00029507,0.00157905,0
 .00247042,-0.00070510,0.00034258,-0.00133679,0.00064123,-0.00725334,0.
 00338968,0.00540739,-0.02458744,0.04230740,-0.29525274,0.00020345,0.00
 042868,-0.00797404,-0.00019169,-0.00040615,-0.00116473,0.00019528,-0.0
 0077475,-0.00113151,0.00043006,-0.00008265,0.00051081,-0.00104064,0.00
 016782,0.00045459,-0.00001151,-0.00000695,0.00002403,-0.00000587,0.000
 02080,0.00000097,0.00002924,-0.00000016,-0.00004188,-0.00002947,-0.000
 01268,-0.00001362,0.00005123,0.00004490,0.00000938,0.00001776,0.000002
 19,0.00002137,-0.00002069,0.00000593,-0.00000324,0.00001680,-0.0000080
 6,0.00001472,0.00001044,0.00000549,-0.00000004,0.03042021,-0.05137883,
 0.31759240,0.00029227,0.00002769,-0.00020291,0.00000506,0.00002274,-0.
 00003731,-0.00013503,-0.00003463,-0.00000982,-0.00003252,-0.00001920,0
 .00000164,-0.00093424,-0.00023256,-0.00080963,0.00371020,0.00847991,0.
 00019464,0.00147100,-0.00429997,-0.00019222,-0.01557070,0.03008699,0.0
 1227155,-0.04588802,0.01223206,0.00685451,0.00352486,-0.02013282,-0.01
 132848,-0.00404933,-0.00206869,0.00158641,-0.00308268,-0.00007865,0.00
 272768,0.00058121,0.00011907,-0.00019845,-0.00032616,0.00020491,-0.000
 00700,-0.00000146,-0.00002102,0.00001603,0.00001633,-0.00000507,-0.000
 01625,-0.00000300,-0.00003139,0.00004249,-0.00000632,-0.00003930,-0.00
 004246,-0.00001244,0.00001055,0.00002138,-0.00000584,0.00001894,-0.000
 00798,-0.00001857,0.00000455,-0.00000101,0.00000840,-0.00000198,0.0000
 0920,0.00002125,-0.00000962,-0.00000532,0.00212231,-0.00314702,-0.0010
 2523,0.05688653,-0.00022359,-0.00006916,-0.00000741,0.00005397,0.00003
 684,-0.00000045,0.00003765,0.00003606,-0.00001590,0.00003309,0.0000202
 2,-0.00000107,0.00059708,-0.00001763,-0.00014537,-0.00185926,-0.001937
 86,0.00041546,-0.00043294,0.00124500,-0.00026006,0.00715649,-0.0109689
 3,-0.00154581,0.01728548,-0.23891457,-0.11963280,0.00151533,-0.0154224
 4,-0.00929498,-0.00147798,-0.00177564,0.00174098,0.00049009,-0.0003016
 6,-0.00204156,-0.00007386,0.00053076,-0.00030326,0.00019397,-0.0000789
 9,-0.00000956,0.00003231,-0.00000215,-0.00001318,-0.00000980,-0.000007
 22,0.00001182,-0.00005507,-0.00003030,0.00003855,0.00000258,0.00001569
 ,0.00002186,-0.00001953,-0.00000809,-0.00003666,0.00001177,-0.00002032
 ,0.00001660,0.00002077,-0.00000196,0.00000453,-0.00000825,-0.00000665,
 -0.00000243,-0.00001889,0.00000929,0.00000838,-0.00138112,0.00602429,0
 .00328359,-0.02226040,0.26269654,0.00011283,-0.00000044,-0.00003013,-0
 .00000345,-0.00002190,0.00000470,-0.00002005,-0.00003047,0.00000592,-0
 .00000378,-0.00000567,0.00000055,-0.00012810,0.00041728,-0.00036662,0.
 00004245,-0.00204400,0.00151854,-0.00120222,0.00128448,-0.00082319,0.0
 0043096,0.00864496,0.00714534,0.00954915,-0.12180643,-0.12807373,-0.00
 122134,0.01231598,0.00525048,0.00087573,0.00212585,-0.00150135,-0.0005
 1453,0.00094971,-0.00042294,0.00025337,0.00008305,0.00073311,-0.000491
 88,0.00035098,0.00017480,-0.00000527,0.00000375,0.00000122,-0.00000690
 ,0.00001006,-0.00000166,0.00000101,-0.00000331,-0.00001678,-0.00000353
 ,-0.00000228,-0.00000977,0.00000751,0.00001306,0.00002196,-0.00000864,
 0.00001266,-0.00000989,-0.00000492,-0.00000075,0.00000092,0.00000076,0
 .00000254,0.00000106,0.00000259,0.00000125,-0.00000204,0.00177162,-0.0
 3008454,-0.01981259,-0.00886460,0.12685188,0.13501754,-0.00002804,0.00
 002409,0.00002941,-0.00000133,-0.00000319,-0.00000589,0.00000475,-0.00
 000178,0.00000836,-0.00000786,-0.00000859,0.00000294,-0.00008749,0.000
 00281,-0.00005804,-0.00024959,-0.00022642,0.00004266,-0.00006997,0.000
 18359,-0.00011511,0.00058294,-0.00046825,-0.00079119,-0.00450565,0.001
 53254,0.02073281,-0.06269354,0.00752753,0.04679167,-0.00370172,0.00022
 315,0.01595700,0.00010989,-0.00028291,0.00013367,-0.00036368,0.0022602
 7,0.00113009,-0.00015745,0.00011583,-0.00031366,-0.00000112,0.00000027
 ,-0.00000082,0.00000349,-0.00000507,-0.00000252,0.00000034,0.00000459,
 0.00000418,0.00000706,0.00000119,-0.00000497,-0.00000370,-0.00000395,0
 .00000857,-0.00001030,0.00000351,-0.00001496,0.00000078,0.00000540,-0.
 00000212,-0.00000534,0.00000380,-0.00000749,-0.00000145,-0.00000234,0.
 00000069,-0.00176224,-0.00170865,0.00087319,0.00114201,0.00049301,-0.0
 0038172,0.06350101,0.00007734,0.00005344,0.00000387,-0.00000945,-0.000
 01438,-0.00000356,-0.00001435,-0.00001097,-0.00000066,-0.00001522,-0.0
 0001276,-0.00000426,-0.00023599,0.00005097,-0.00006697,0.00019000,0.00
 000068,0.00007103,-0.00009892,0.00003313,-0.00013897,0.00064482,-0.000
 47676,-0.00003502,-0.00708140,-0.00116120,0.02938847,0.00874657,-0.050
 81624,-0.03112271,0.00333201,-0.00189708,-0.03167939,-0.00026263,0.000
 67703,0.00063566,0.00412517,-0.00654183,-0.00360230,0.00008709,-0.0004
 1088,0.00041747,-0.00000714,0.00000013,0.00000218,0.00000225,0.0000002
 4,-0.00000148,0.00001264,0.00000662,-0.00000336,-0.00000347,-0.0000025
 9,-0.00000544,0.00000657,0.00000999,0.00001441,-0.00000287,0.00000661,
 -0.00000399,-0.00000631,0.00000401,-0.00000117,0.00000181,0.00000183,0
 .00000051,0.00000267,-0.00000088,-0.00000004,-0.00407836,-0.00283280,0
 .00137245,0.00095420,0.00113030,0.00016260,-0.00535147,0.06213129,-0.0
 0012025,-0.00005445,-0.00002088,0.00002166,0.00001150,0.00000258,0.000
 02296,0.00001737,-0.00000162,0.00001919,0.00001186,-0.00000235,0.00031
 960,-0.00002094,0.00010777,-0.00019124,-0.00020907,-0.00025018,0.00010
 881,0.00005656,0.00008245,0.00033583,0.00009606,0.00056995,0.00084777,
 -0.00023694,-0.01016321,0.04721413,-0.03125564,-0.29983208,-0.00103276
 ,0.00081976,-0.00506174,0.00000037,0.00031487,-0.00043828,0.00119179,-
 0.00148785,0.00089343,-0.00045171,0.00020997,0.00042819,0.00001287,0.0
 0000333,-0.00000249,-0.00000937,0.00000437,0.00000583,-0.00001588,-0.0
 0001296,0.00000541,0.00000608,0.00000521,0.00000819,-0.00001154,-0.000
 01263,-0.00001671,0.00000185,-0.00000720,0.00000865,0.00000951,-0.0000
 0340,0.00000248,-0.00000337,-0.00000276,0.00000317,-0.00000678,0.00000
 472,0.00000065,0.00143454,0.00095502,0.00090600,-0.00023571,0.00028562
 ,0.00132403,-0.05392870,0.03367426,0.32592610,0.00033559,0.00011661,-0
 .00003062,-0.00005894,-0.00003228,-0.00000268,-0.00007720,-0.00003678,
 0.00000685,-0.00005275,-0.00003354,0.00000406,-0.00091826,-0.00012208,
 -0.00011075,0.00046589,0.00110357,0.00003680,-0.00015022,-0.00039789,0
 .00007872,-0.00264431,-0.00188741,0.00066228,-0.01344173,0.00258254,-0
 .00966985,-0.24703251,-0.00592029,-0.12083736,-0.01478008,-0.00031842,
 -0.00894932,-0.00124703,0.00172624,0.00114934,0.00298614,-0.00259503,0
 .00018627,-0.00090864,0.00035263,0.00022230,-0.00002447,-0.00000725,0.
 00001702,0.00000602,0.00001080,-0.00000480,0.00003535,0.00001490,-0.00
 002863,-0.00002217,-0.00001875,-0.00001953,0.00002947,0.00003186,0.000
 02011,0.00000798,0.00000952,0.00000443,-0.00002617,0.00000856,-0.00000
 631,0.00001442,-0.00000096,0.00000661,0.00001579,-0.00000088,-0.000001
 62,0.00087319,0.00026441,0.00057046,-0.00052766,-0.00053037,0.00024919
 ,0.00800455,-0.00002381,0.00422196,0.26951319,0.00009497,0.00013592,-0
 .00004875,-0.00001190,-0.00000497,-0.00000452,-0.00001731,-0.00000614,
 0.00000203,-0.00004406,-0.00003266,-0.00000006,-0.00054268,0.00005621,
 -0.00008703,-0.00010847,0.00092608,0.00010497,-0.00008257,0.00004253,-
 0.00001080,-0.00297931,-0.00383101,0.00105584,-0.02053689,0.00065180,-
 0.01343316,-0.00547869,-0.04701282,-0.00209303,0.02860114,-0.00071595,
 0.01673126,0.00290970,-0.00542787,-0.00172970,-0.00368785,0.00318696,0
 .00148982,0.00014166,-0.00012866,-0.00027703,-0.00000647,-0.00000019,0
 .00000349,0.00000025,0.00000142,0.00000434,0.00001884,0.00001004,-0.00
 001246,-0.00000615,-0.00000383,-0.00000436,0.00001492,0.00001568,0.000
 00804,0.00000273,-0.00000033,-0.00000138,-0.00000909,0.00001968,-0.000
 00473,-0.00000107,-0.00000404,-0.00000954,-0.00000605,0.00000344,0.000
 01095,0.00075861,0.00151046,0.00020318,-0.00036531,-0.00087593,0.00004
 367,-0.00442554,-0.00073309,-0.00240697,0.00535369,0.05118159,0.000018
 81,-0.00004244,0.00000813,0.00000788,0.00000416,0.00000934,0.00000629,
 0.00000023,-0.00001032,0.00002111,0.00001831,-0.00000372,0.00034607,0.
 00008636,0.00004865,0.00051753,-0.00047269,0.00003751,-0.00003716,-0.0
 0004108,0.00000852,0.00311986,0.00143636,0.00004145,0.01068583,0.00005
 565,0.00459296,-0.12414890,-0.00055240,-0.12385882,0.00375310,-0.00141
 512,0.00033721,0.00143308,0.00005909,-0.00020309,0.00037964,0.00046721
 ,0.00068547,0.00050472,0.00000270,-0.00002429,0.00000005,0.00000133,-0
 .00000610,0.00000245,-0.00000238,-0.00000099,0.00000196,0.00000221,-0.
 00000034,-0.00000297,0.00000386,0.00000589,0.00000194,0.00000422,-0.00
 000107,0.00000491,-0.00000117,0.00000644,0.00000448,-0.00000966,0.0000
 0371,0.00000250,-0.00000084,0.00000391,0.00000185,-0.00000127,-0.00000
 167,0.00001773,-0.00039094,0.00079466,-0.00003811,0.00026433,0.0000462
 9,-0.02922348,0.00035401,-0.01590548,0.13247338,-0.00000067,0.13307069
 ,0.00028513,0.00004567,0.00002653,-0.00005357,-0.00002770,0.00000050,-
 0.00005441,-0.00002821,0.00000349,-0.00002694,-0.00001887,0.00000477,-
 0.00045754,0.00002852,-0.00006382,0.00169214,-0.00051755,0.00005206,-0
 .00051186,-0.00090131,0.00024895,-0.00633840,-0.00197785,-0.00096287,-
 0.00305290,0.00344085,0.00049908,0.00760879,0.01684590,-0.00965783,-0.
 08946887,-0.07733509,0.05150277,-0.00770097,-0.02391703,0.01566371,0.0
 0132490,0.00113606,-0.00025976,0.00128485,0.00023416,-0.00071728,-0.00
 002188,-0.00000488,0.00001211,0.00000676,0.00000758,-0.00000394,0.0000
 4250,0.00002004,-0.00003994,-0.00001573,-0.00001294,-0.00001352,0.0000
 2859,0.00003344,0.00003153,0.00000417,0.00000838,-0.00000314,-0.000014
 46,0.00000795,-0.00000538,0.00000787,-0.00000502,-0.00000660,0.0000090
 6,-0.00000343,0.00000802,0.00024277,0.00001717,-0.00001446,0.00070897,
 0.00038541,-0.00036098,0.00079190,-0.00124342,-0.00006344,0.00016917,-
 0.00055426,-0.00030564,0.09256782,0.00027821,0.00008587,0.00001843,-0.
 00005278,-0.00003585,0.00000433,-0.00004718,-0.00003338,0.00000467,-0.
 00003424,-0.00002349,0.00000478,-0.00062678,0.00016312,-0.00012500,0.0
 0097972,0.00011788,0.00002009,-0.00050033,-0.00025329,0.00007344,-0.00
 039913,-0.00039748,-0.00013578,0.00271933,-0.00304861,-0.00118929,-0.0
 1087397,-0.01921574,0.01167073,-0.07949916,-0.21705790,0.11457578,0.00
 067779,-0.00361031,0.00252072,0.00455521,0.00961750,-0.00882148,0.0007
 9552,0.00167631,-0.00402663,-0.00002455,-0.00000182,0.00001131,0.00000
 542,0.00000811,-0.00000171,0.00003797,0.00002391,-0.00003563,-0.000021
 26,-0.00000880,-0.00001263,0.00003133,0.00003785,0.00002375,0.00000695
 ,0.00000667,-0.00000056,-0.00001807,0.00000747,-0.00000478,0.00000860,
 -0.00000229,-0.00000249,0.00000819,0.00000001,0.00000417,-0.00013365,-
 0.00021662,0.00017105,-0.00071594,-0.00056314,0.00040613,-0.00013799,0
 .00054484,-0.00062354,0.00045610,0.00036466,0.00030144,0.08357183,0.23
 170125,0.00003211,0.00001344,-0.00001616,-0.00000444,-0.00001343,0.000
 00026,-0.00000594,-0.00000931,0.00000485,-0.00000514,-0.00000732,0.000
 00255,-0.00006357,0.00007126,-0.00001243,0.00047386,-0.00056357,0.0001
 5604,-0.00034905,-0.00028593,0.00003187,-0.00219435,-0.00183720,0.0008
 3717,-0.00050318,-0.00147796,0.00043000,-0.00127567,-0.00311719,0.0028
 6790,0.04883793,0.10729127,-0.11442748,-0.00281326,-0.00658677,0.00468
 152,0.01437028,0.02174069,-0.03087179,-0.00130059,-0.00116970,-0.00614
 711,0.00000018,0.00000394,0.00000557,-0.00001040,0.00000982,0.00000280
 ,0.00000775,-0.00000377,-0.00001423,-0.00000284,0.00000060,-0.00000274
 ,0.00000761,0.00000848,0.00000746,-0.00000114,0.00000230,0.00000173,-0
 .00000123,0.00000273,-0.00000058,-0.00000005,0.00000041,0.00000332,-0.
 00000195,0.00000464,-0.00000245,-0.00000356,-0.00024924,0.00017672,-0.
 00007708,-0.00013143,0.00007591,-0.00043471,0.00018619,0.00067340,0.00
 013866,0.00012576,-0.00010058,-0.05524656,-0.11407001,0.14108593,-0.00
 035529,-0.00019464,0.00031180,-0.00004700,-0.00002759,-0.00000172,0.00
 013265,0.00005552,-0.00003466,0.00003645,-0.00004050,-0.00005681,-0.00
 147598,-0.00081101,-0.00045113,0.00154619,0.00017157,-0.00033134,-0.00
 024829,-0.00022452,0.00056004,0.00344683,-0.00462470,-0.00372535,-0.00
 074365,-0.00110779,0.00066586,-0.00446633,-0.00085756,-0.00234163,-0.0
 2235915,0.01821276,0.01487439,-0.17507166,0.10716605,0.08958670,0.0063
 1155,-0.00059655,0.00183137,-0.00095989,0.00093307,-0.00117922,-0.0000
 0300,0.00001395,0.00000455,0.00000193,-0.00000766,0.00002051,0.0000007
 5,0.00001677,-0.00000287,0.00001877,0.00003836,0.00003761,0.00000118,-
 0.00000578,0.00000011,-0.00000224,-0.00001220,-0.00000623,0.00002712,0
 .00003040,0.00001501,-0.00002032,-0.00001225,-0.00002623,-0.00006122,0
 .00002692,0.00004682,-0.00002716,0.00006549,-0.00009959,0.00011048,0.0
 0005211,-0.00010091,0.00009227,-0.00024357,0.00013241,-0.00050737,0.00
 112810,0.00017849,-0.00022889,-0.00044229,-0.00019131,0.19074710,-0.00
 041850,0.00028202,0.00012967,0.00001174,-0.00005909,0.00002208,0.00021
 662,0.00003926,-0.00002630,-0.00004668,-0.00005376,-0.00005276,-0.0017
 2283,0.00201688,-0.00010465,0.00685983,-0.00041822,-0.00040838,-0.0012
 5938,-0.00073181,0.00081674,0.01978456,-0.02635090,-0.00629982,-0.0016
 6982,-0.00327322,-0.00233502,-0.00259218,-0.00103606,-0.00107532,-0.00
 841978,0.00786100,0.00568837,0.10177000,-0.12657792,-0.06996235,0.0009
 1215,-0.00000273,0.00123731,0.00051170,-0.00021738,0.00006528,-0.00000
 368,0.00004833,-0.00000013,-0.00003710,0.00002073,0.00004760,0.0000748
 1,0.00003556,-0.00006861,-0.00000603,0.00006907,0.00004644,0.00003438,
 0.00004400,0.00001387,0.00000188,-0.00001662,0.00000155,0.00001763,0.0
 0003466,0.00000926,-0.00001982,-0.00000505,-0.00001497,-0.00006609,0.0
 0004872,0.00003809,0.00001171,-0.00005616,0.00005814,0.00137383,-0.000
 67057,0.00025040,0.00007634,-0.00019830,-0.00007347,-0.00014164,0.0007
 6686,0.00000355,0.00052261,0.00008948,0.00022221,-0.11529561,0.1460028
 7,-0.00014440,0.00007393,-0.00002359,0.00004004,0.00008926,0.00002174,
 0.00004089,0.00004685,-0.00003886,0.00000958,0.00000056,0.00000757,0.0
 0018102,0.00067793,-0.00047987,0.00035766,-0.00029197,0.00106583,-0.00
 012198,0.00021489,-0.00047267,-0.01050791,0.00927384,0.00689834,-0.000
 49580,0.00190925,-0.00029612,-0.00134617,0.00063149,-0.00066857,-0.007
 59416,0.00464090,0.00197315,0.09270976,-0.07312219,-0.11396245,0.00029
 136,0.00034414,0.00098155,-0.00060251,0.00064763,-0.00022076,0.0000141
 0,-0.00000484,-0.00003002,0.00001349,-0.00002203,0.00000522,-0.0000110
 3,0.00000755,-0.00000190,0.00000605,0.00001464,0.00002424,0.00000496,0
 .00001941,0.00000026,0.00001528,-0.00001981,-0.00000174,0.00003133,0.0
 0004622,-0.00001382,-0.00003849,-0.00004080,-0.00009170,-0.00005170,0.
 00000368,0.00008713,-0.00017043,0.00008859,-0.00003210,-0.00048948,0.0
 0034937,-0.00015012,-0.00025516,0.00018676,0.00015136,-0.00020180,0.00
 030857,0.00029885,0.00029401,-0.00012583,-0.00005332,-0.09664796,0.072
 26910,0.12117857,-0.00024802,-0.00000734,-0.00008351,0.00009276,0.0000
 5657,0.00003635,0.00002052,-0.00002242,0.00000955,-0.00001104,0.000015
 99,0.00007619,0.00078396,0.00069418,-0.00066476,0.00154875,0.00006193,
 0.00130842,-0.00032212,-0.00068432,-0.00032577,0.00199377,-0.00224491,
 0.00314131,-0.00083633,0.00022409,-0.00005295,0.00070593,0.00011045,0.
 00092313,0.00009005,0.00179534,-0.03079361,-0.05947763,0.00452293,-0.0
 3039371,-0.00520126,-0.00196528,-0.00394256,-0.00047532,0.00003428,0.0
 0045937,0.00001083,0.00000868,-0.00004482,0.00001090,-0.00001329,-0.00
 001036,0.00001539,0.00001272,-0.00000909,0.00000615,0.00002616,-0.0000
 0171,0.00002855,0.00002275,0.00001144,-0.00000537,-0.00001811,-0.00003
 408,0.00002291,0.00001387,-0.00002940,-0.00004253,-0.00000206,-0.00006
 308,0.00000051,-0.00001183,0.00001067,0.00009051,0.00009864,0.00001504
 ,-0.00000692,-0.00001005,0.00002565,-0.00059053,0.00049520,0.00016940,
 -0.00003724,-0.00016094,0.00027259,0.00117102,-0.00060483,0.00061763,0
 .00410417,-0.00048065,0.02466945,0.05655762,0.00056014,0.00021431,-0.0
 0003680,-0.00003823,-0.00007945,-0.00000138,-0.00013794,-0.00013197,0.
 00004119,-0.00008473,-0.00007049,0.00000301,-0.00161991,0.00124717,-0.
 00081452,0.00713473,0.00286651,0.00272862,-0.00093988,-0.00274562,-0.0
 0083774,0.00078486,-0.01917848,0.03670732,-0.00262723,0.00005849,0.001
 93309,-0.00008764,0.00010370,0.00061779,0.00204714,-0.00027389,-0.0113
 9377,0.00286458,-0.04442075,0.00628049,-0.00423174,-0.00054688,-0.0025
 6003,0.00014575,-0.00035205,0.00045254,-0.00004690,0.00001162,0.000008
 73,0.00000215,0.00001342,0.00000081,0.00011205,0.00005898,-0.00007797,
 -0.00004330,-0.00000178,-0.00006487,0.00012817,0.00012865,0.00011263,-
 0.00001761,0.00002740,-0.00004678,-0.00003056,0.00002487,-0.00001303,-
 0.00000001,0.00002170,-0.00000834,0.00000306,0.00000308,-0.00000118,0.
 00112337,-0.00062718,0.00029363,-0.00007186,-0.00007181,0.00006949,0.0
 0016823,0.00045864,-0.00006267,0.00003596,-0.00009585,-0.00013435,0.00
 024199,0.00002378,-0.00016089,-0.00340687,0.00230834,-0.01821710,-0.00
 196778,0.06102555,-0.00039473,-0.00018540,-0.00014424,0.00007218,0.000
 01893,-0.00000652,0.00006608,0.00005307,-0.00002900,0.00006491,0.00003
 167,-0.00008870,0.00124704,-0.00114902,0.00113757,-0.00443488,-0.00069
 755,-0.00083001,0.00080443,0.00091976,-0.00016304,0.00111424,0.0116182
 7,-0.00236249,0.00098536,-0.00056395,-0.00140292,0.00033991,0.00030827
 ,-0.00010632,0.00210400,-0.00077406,-0.00757264,-0.02971199,0.00618187
 ,-0.30048772,-0.00234475,0.00003880,0.00014449,0.00022910,-0.00025818,
 0.00066450,0.00004447,0.00000573,-0.00000232,-0.00003155,0.00000593,0.
 00001873,-0.00008467,-0.00006447,0.00006826,0.00001453,-0.00000095,0.0
 0003845,-0.00007548,-0.00008432,-0.00007390,0.00001547,0.00000346,0.00
 006393,0.00000435,-0.00003705,0.00003955,0.00004841,0.00000410,0.00009
 218,-0.00000851,0.00001355,-0.00002383,-0.00058369,0.00018212,-0.00010
 563,-0.00013647,0.00014896,-0.00010153,-0.00017469,0.00019946,0.000595
 39,-0.00018517,0.00003226,0.00011681,-0.00062239,-0.00063546,0.0006038
 9,-0.00306872,-0.00049789,-0.01615619,0.03470324,-0.01481792,0.3260732
 6\\-0.00000036,0.00000130,0.00000251,0.00000065,0.00000099,0.00000180,
 -0.00000289,0.00000322,0.00000135,-0.00000066,0.00000329,0.00000429,-0
 .00000097,0.00000167,0.00000065,0.00000054,-0.00000186,-0.00000037,-0.
 00000103,0.00000019,-0.00000224,0.00000019,-0.00000124,-0.00000145,0.0
 0000002,-0.00000209,-0.00000385,0.,-0.00000260,-0.00000365,0.00000164,
 -0.00000253,-0.00000213,0.00000088,-0.00000048,-0.00000036,0.00000351,
 -0.00000347,-0.00000090,0.00000357,-0.00000386,-0.00000112,0.00000031,
 0.00000161,0.00000304,0.00000216,0.00000015,0.00000289,0.00000038,0.00
 000003,0.00000059,-0.00000318,0.00000374,0.00000188,-0.00000302,0.0000
 0210,-0.00000051,-0.00000362,0.00000371,0.00000112,-0.00000058,0.00000
 385,0.00000532,-0.00000115,0.00000368,0.00000436,0.00000125,0.00000222
 ,0.00000506,0.00000109,-0.00000358,-0.00000406,-0.00000138,-0.00000194
 ,-0.00000472,-0.00000105,-0.00000178,-0.00000426,0.00000104,-0.0000039
 4,-0.00000502,0.00000150,-0.00000206,-0.00000136,0.00000176,-0.0000007
 2,0.00000117,-0.00000057,0.00000037,-0.00000003\\\@
 The archive entry for this job was punched.


 THE TRULY SUCCESSFUL PERFORMANCE OF RESEARCHES IN
 INORGANIC CHEMISTRY IS POSSIBLE ONLY TO ONE WHO IS NOT
 ONLY A THEORETICAL CHEMIST, BUT ALSO AN ACCOMPLISHED
 ANALYST AND, MOREOVER, NOT MERELY A PRACTICALLY TRAINED,
 MECHANICAL WORKER, BUT A THINKING CREATIVE ARTIST.
   --  CLEMENS WINKLER, BER. 33, 1697(1900)
 Job cpu time:  0 days  0 hours 16 minutes 38.7 seconds.
 File lengths (MBytes):  RWF=    113 Int=      0 D2E=      0 Chk=      3 Scr=      1
 Normal termination of Gaussian DV at Wed Oct 19 22:46:46 2011.
