 Entering Gaussian System, Link 0=gdv
 Input=cdb.gjf
 Output=cdb.log
 Initial command:
 /home/foresman/gdv/l1.exe /tmp/Gau-24100.inp -scrdir=/tmp/
 Default is to use a total of   8 processors:
                                8 via shared-memory
                                1 via Linda
 Entering Link 1 = /home/foresman/gdv/l1.exe PID=     24101.
  
 Copyright (c) 1988,1990,1992,1993,1995,1998,2003,2009,2011,
            Gaussian, Inc.  All Rights Reserved.
  
 This is the private, development version of
 the Gaussian(R) DV system of programs. It is based on
 the Gaussian(R) 09 system (copyright 2009, Gaussian, Inc.),
 the Gaussian(R) 03 system (copyright 2003, Gaussian, Inc.),
 the Gaussian(R) 98 system (copyright 1998, Gaussian, Inc.),
 the Gaussian(R) 94 system (copyright 1995, Gaussian, Inc.),
 the Gaussian 92(TM) system (copyright 1992, Gaussian, Inc.),
 the Gaussian 90(TM) system (copyright 1990, Gaussian, Inc.),
 the Gaussian 88(TM) system (copyright 1988, Gaussian, Inc.),
 the Gaussian 86(TM) system (copyright 1986, Carnegie Mellon
 University), and the Gaussian 82(TM) system (copyright 1983,
 Carnegie Mellon University). Gaussian is a federally registered
 trademark of Gaussian, Inc.
  
 This software contains proprietary and confidential information,
 including trade secrets, belonging to Gaussian, Inc.
  
 This software is provided under written license and may be
 used, copied, transmitted, or stored only in accord with that
 written license.
  
 The following legend is applicable only to US Government
 contracts under FAR:
  
                    RESTRICTED RIGHTS LEGEND
  
 Use, reproduction and disclosure by the US Government is
 subject to restrictions as set forth in subparagraphs (a)
 and (c) of the Commercial Computer Software - Restricted
 Rights clause in FAR 52.227-19.
  
 Gaussian, Inc.
 340 Quinnipiac St., Bldg. 40, Wallingford CT 06492
  
  
 ---------------------------------------------------------------
 Warning -- This program may not be used in any manner that
 competes with the business of Gaussian, Inc. or will provide
 assistance to any competitor of Gaussian, Inc.  The licensee
 of this program is prohibited from giving any competitor of
 Gaussian, Inc. access to this program.  By using this program,
 the user acknowledges that Gaussian, Inc. is engaged in the
 business of creating and licensing software in the field of
 computational chemistry and represents and warrants to the
 licensee that it is not a competitor of Gaussian, Inc. and that
 it will not use this program in any manner prohibited above.
 ---------------------------------------------------------------
  

 Cite this work as:
 Gaussian Development Version, Revision H.13,
 M. J. Frisch, G. W. Trucks, H. B. Schlegel, G. E. Scuseria, 
 M. A. Robb, J. R. Cheeseman, G. Scalmani, V. Barone, B. Mennucci, 
 G. A. Petersson, H. Nakatsuji, M. Caricato, X. Li, H. P. Hratchian, 
 A. F. Izmaylov, J. Bloino, G. Zheng, J. L. Sonnenberg, W. Liang, 
 M. Hada, M. Ehara, K. Toyota, R. Fukuda, J. Hasegawa, M. Ishida, 
 T. Nakajima, Y. Honda, O. Kitao, H. Nakai, T. Vreven, 
 J. A. Montgomery, Jr., J. E. Peralta, F. Ogliaro, M. Bearpark, 
 J. J. Heyd, E. Brothers, K. N. Kudin, V. N. Staroverov, T. Keith, 
 R. Kobayashi, J. Normand, K. Raghavachari, A. Rendell, J. C. Burant, 
 S. S. Iyengar, J. Tomasi, M. Cossi, N. Rega, J. M. Millam, M. Klene, 
 J. E. Knox, J. B. Cross, V. Bakken, C. Adamo, J. Jaramillo, 
 R. Gomperts, R. E. Stratmann, O. Yazyev, A. J. Austin, R. Cammi, 
 C. Pomelli, J. W. Ochterski, R. L. Martin, K. Morokuma, 
 V. G. Zakrzewski, G. A. Voth, P. Salvador, J. J. Dannenberg, 
 S. Dapprich, P. V. Parandekar, N. J. Mayhall, A. D. Daniels, 
 O. Farkas, J. B. Foresman, J. V. Ortiz, J. Cioslowski, 
 and D. J. Fox, Gaussian, Inc., Wallingford CT, 2010.
 
 ******************************************
 Gaussian DV:  EM64L-GDVRevH.13 30-Sep-2011
                19-Oct-2011 
 ******************************************
 %chk=cdb
 %nprocshared=8
 Will use up to    8 processors via shared memory.
 Default route:  maxdisk=400GB
 ------------------------------------
 #p B3LYP/3-21G freq=vcd Geom=Connect
 ------------------------------------
 1/10=4,30=1,38=1,57=2/1,3;
 2/12=2,17=6,18=5,40=1/2;
 3/5=5,11=2,16=1,25=1,30=1,36=2,71=2,74=-5,140=1/1,2,3;
 4//1;
 5/5=2,38=5,98=1/2;
 8/6=4,10=90,11=11/1;
 10/15=4,46=1/2;
 11/6=1,8=1,9=11,15=111,16=1/1,2,10;
 10/6=1,46=1/2;
 6/7=2,8=2,9=2,10=2,18=1,28=1/1;
 7/8=1,10=1,25=1/1,2,3,16;
 1/10=4,30=1/3;
 99//99;
 Leave Link    1 at Wed Oct 19 22:46:46 2011, MaxMem=          0 cpu:       0.3
 (Enter /home/foresman/gdv/l101.exe)
 ----------------
 10 -21.707 0.000
 ----------------
 Charge =  0 Multiplicity = 1
 Symbolic Z-Matrix:
 C                    -1.37186  -2.07438  -0.2276 
 C                    -0.44038  -3.29091  -0.29779 
 C                    -2.34698  -2.17469   0.95569 
 C                    -2.10647  -1.84779  -1.5585 
 O                    -0.40666  -0.95089   0.0118 
 C                    -0.8997    0.3437    0.1363 
 O                    -2.09227   0.67779   0.06092 
 N                     0.13523   1.19529   0.34505 
 C                    -0.06434   2.65712   0.48494 
 C                     1.33929   3.19876   0.1339 
 C                     2.26197   2.13312   0.75578 
 C                     1.55634   0.80139   0.4073 
 O                     2.19315   2.41      2.19062 
 H                     2.6322    1.65686   2.67093 
 H                    -1.02463  -4.1994   -0.47506 
 H                     0.27933  -3.16023  -1.1115 
 H                     0.1082   -3.39282   0.64339 
 H                    -3.01176  -3.033     0.81299 
 H                    -1.78623  -2.31114   1.88641 
 H                    -2.93205  -1.25619   1.01627 
 H                    -2.75894  -2.70185  -1.76846 
 H                    -2.69869  -0.9344   -1.49102 
 H                    -1.37825  -1.74998  -2.37058 
 H                    -0.31418   2.91257   1.51844 
 H                    -0.85685   2.98909  -0.18716 
 H                     1.47995   3.228    -0.95081 
 H                     1.53718   4.17832   0.57085 
 H                     3.28878   2.16716   0.36994 
 H                     1.72406   0.03412   1.1694 
 H                     1.89746   0.41267  -0.55855 
 
 NAtoms=     30 NQM=        0 NQMF=       0 NMMI=     30 NMMIF=      0
                NMic=       0 NMicF=      0.
                    Isotopes and Nuclear Properties:
 (Nuclear quadrupole moments (NQMom) in fm**2, nuclear magnetic moments (NMagM)
  in nuclear magnetons)

  Atom         1           2           3           4           5           6           7           8           9          10
 IAtWgt=          12          12          12          12          16          12          16          14          12          12
 AtmWgt=  12.0000000  12.0000000  12.0000000  12.0000000  15.9949146  12.0000000  15.9949146  14.0030740  12.0000000  12.0000000
 NucSpn=           0           0           0           0           0           0           0           2           0           0
 AtZEff=   0.0000000   0.0000000   0.0000000   0.0000000   0.0000000   0.0000000   0.0000000   0.0000000   0.0000000   0.0000000
 NQMom=    0.0000000   0.0000000   0.0000000   0.0000000   0.0000000   0.0000000   0.0000000   2.0440000   0.0000000   0.0000000
 NMagM=    0.0000000   0.0000000   0.0000000   0.0000000   0.0000000   0.0000000   0.0000000   0.4037610   0.0000000   0.0000000
 AtZNuc=   6.0000000   6.0000000   6.0000000   6.0000000   8.0000000   6.0000000   8.0000000   7.0000000   6.0000000   6.0000000

  Atom        11          12          13          14          15          16          17          18          19          20
 IAtWgt=          12          12          16           1           1           1           1           1           1           1
 AtmWgt=  12.0000000  12.0000000  15.9949146   1.0078250   1.0078250   1.0078250   1.0078250   1.0078250   1.0078250   1.0078250
 NucSpn=           0           0           0           1           1           1           1           1           1           1
 AtZEff=   0.0000000   0.0000000   0.0000000   0.0000000   0.0000000   0.0000000   0.0000000   0.0000000   0.0000000   0.0000000
 NQMom=    0.0000000   0.0000000   0.0000000   0.0000000   0.0000000   0.0000000   0.0000000   0.0000000   0.0000000   0.0000000
 NMagM=    0.0000000   0.0000000   0.0000000   2.7928460   2.7928460   2.7928460   2.7928460   2.7928460   2.7928460   2.7928460
 AtZNuc=   6.0000000   6.0000000   8.0000000   1.0000000   1.0000000   1.0000000   1.0000000   1.0000000   1.0000000   1.0000000

  Atom        21          22          23          24          25          26          27          28          29          30
 IAtWgt=           1           1           1           1           1           1           1           1           1           1
 AtmWgt=   1.0078250   1.0078250   1.0078250   1.0078250   1.0078250   1.0078250   1.0078250   1.0078250   1.0078250   1.0078250
 NucSpn=           1           1           1           1           1           1           1           1           1           1
 AtZEff=   0.0000000   0.0000000   0.0000000   0.0000000   0.0000000   0.0000000   0.0000000   0.0000000   0.0000000   0.0000000
 NQMom=    0.0000000   0.0000000   0.0000000   0.0000000   0.0000000   0.0000000   0.0000000   0.0000000   0.0000000   0.0000000
 NMagM=    2.7928460   2.7928460   2.7928460   2.7928460   2.7928460   2.7928460   2.7928460   2.7928460   2.7928460   2.7928460
 AtZNuc=   1.0000000   1.0000000   1.0000000   1.0000000   1.0000000   1.0000000   1.0000000   1.0000000   1.0000000   1.0000000
 Leave Link  101 at Wed Oct 19 22:46:46 2011, MaxMem=  128000000 cpu:       0.9
 (Enter /home/foresman/gdv/l103.exe)

 GradGradGradGradGradGradGradGradGradGradGradGradGradGradGradGradGradGrad
 Berny optimization.
 Initialization pass.
 Trust Radius=3.00D-01 FncErr=1.00D-07 GrdErr=1.00D-07
 Number of steps in this run=      2 maximum allowed number of steps=      2.
 GradGradGradGradGradGradGradGradGradGradGradGradGradGradGradGradGradGrad

 Leave Link  103 at Wed Oct 19 22:46:46 2011, MaxMem=  128000000 cpu:       0.2
 (Enter /home/foresman/gdv/l202.exe)
                          Input orientation:                          
 ---------------------------------------------------------------------
 Center     Atomic      Atomic             Coordinates (Angstroms)
 Number     Number       Type             X           Y           Z
 ---------------------------------------------------------------------
      1          6           0       -1.371856   -2.074385   -0.227597
      2          6           0       -0.440377   -3.290905   -0.297791
      3          6           0       -2.346976   -2.174685    0.955687
      4          6           0       -2.106474   -1.847790   -1.558499
      5          8           0       -0.406662   -0.950888    0.011798
      6          6           0       -0.899699    0.343699    0.136299
      7          8           0       -2.092272    0.677793    0.060920
      8          7           0        0.135233    1.195286    0.345046
      9          6           0       -0.064342    2.657119    0.484942
     10          6           0        1.339287    3.198764    0.133903
     11          6           0        2.261967    2.133121    0.755780
     12          6           0        1.556337    0.801388    0.407300
     13          8           0        2.193148    2.409999    2.190619
     14          1           0        2.632203    1.656859    2.670934
     15          1           0       -1.024626   -4.199397   -0.475062
     16          1           0        0.279333   -3.160228   -1.111499
     17          1           0        0.108202   -3.392819    0.643391
     18          1           0       -3.011764   -3.032995    0.812992
     19          1           0       -1.786227   -2.311143    1.886410
     20          1           0       -2.932054   -1.256189    1.016274
     21          1           0       -2.758938   -2.701847   -1.768463
     22          1           0       -2.698692   -0.934403   -1.491021
     23          1           0       -1.378245   -1.749984   -2.370576
     24          1           0       -0.314184    2.912570    1.518439
     25          1           0       -0.856846    2.989089   -0.187159
     26          1           0        1.479949    3.228001   -0.950807
     27          1           0        1.537179    4.178321    0.570848
     28          1           0        3.288777    2.167160    0.369940
     29          1           0        1.724062    0.034117    1.169404
     30          1           0        1.897459    0.412671   -0.558554
 ---------------------------------------------------------------------
                    Distance matrix (angstroms):
                    1          2          3          4          5
     1  C    0.000000
     2  C    1.533787   0.000000
     3  C    1.536581   2.540133   0.000000
     4  C    1.536981   2.539260   2.546730   0.000000
     5  O    1.500384   2.360648   2.480610   2.481859   0.000000
     6  C    2.490478   3.689141   3.017991   3.021799   1.390879
     7  O    2.859497   4.313699   3.000352   3.000216   2.344419
     8  N    3.645543   4.568422   4.229770   4.231909   2.238475
     9  C    4.960285   6.011078   5.364545   5.351650   3.654964
    10  C    5.940292   6.743098   6.567938   6.340757   4.503650
    11  C    5.645777   6.150832   6.311855   6.347190   4.145625
    12  C    4.153008   4.607699   4.938987   4.929371   2.660876
    13  O    6.218257   6.754846   6.569407   7.118385   4.775127
    14  H    6.193234   6.537159   6.512682   7.254360   4.806876
    15  H    2.167368   1.094591   2.809824   2.806115   3.342412
    16  H    2.164893   1.094157   3.484544   2.759416   2.571686
    17  H    2.165054   1.094143   2.758492   3.484282   2.574300
    18  H    2.165886   2.812897   1.094989   2.801470   3.429816
    19  H    2.167207   2.746267   1.095129   3.490652   2.695860
    20  H    2.156589   3.474952   1.090698   2.767856   2.734919
    21  H    2.166097   2.808129   2.805103   1.095084   3.430509
    22  H    2.157844   3.475181   2.765570   1.090666   2.740828
    23  H    2.167403   2.747812   3.490391   1.095149   2.694110
    24  H    5.388602   6.465116   5.507186   5.944820   4.147871
    25  H    5.089758   6.294761   5.494648   5.180497   3.970601
    26  H    6.063919   6.827167   6.889781   6.244627   4.684978
    27  H    6.942357   7.775256   7.456236   7.356925   5.513605
    28  H    6.330028   6.644015   7.138378   6.996245   4.848377
    29  H    3.997762   4.230040   4.636576   5.065179   2.617303
    30  H    4.121091   4.387476   5.196399   4.705428   2.737438
                    6          7          8          9         10
     6  C    0.000000
     7  O    1.240778   0.000000
     8  N    1.356415   2.304411   0.000000
     9  C    2.484207   2.865314   1.482011   0.000000
    10  C    3.628286   4.258664   2.346966   1.544922   0.000000
    11  C    3.685366   4.643297   2.360346   2.399925   1.540669
    12  C    2.512974   3.667098   1.475997   2.465029   2.422656
    13  O    4.249180   5.089301   3.019384   2.840187   2.362479
    14  H    4.541267   5.485564   3.443496   3.612539   3.238152
    15  H    4.585749   5.021367   5.578571   6.989675   7.790488
    16  H    3.901874   4.661490   4.594866   6.042207   6.565920
    17  H    3.903150   4.663823   4.597874   6.054471   6.724887
    18  H    4.039901   3.896284   5.291591   6.416565   7.630703
    19  H    3.301062   3.515653   4.285190   5.441748   6.572609
    20  H    2.732117   2.314783   3.983532   4.880580   6.234543
    21  H    4.044779   3.900392   5.294412   6.407589   7.431800
    22  H    2.741913   2.318500   3.992224   4.872706   6.002393
    23  H    3.301050   3.509431   4.282503   5.413213   6.176366
    24  H    2.975271   3.206273   2.127884   1.093523   2.175503
    25  H    2.665436   2.632472   2.117828   1.090865   2.229360
    26  H    3.894061   4.504210   2.760330   2.184517   1.094183
    27  H    4.564157   5.068199   3.303776   2.210499   1.090694
    28  H    4.574159   5.591905   3.300000   3.390678   2.218204
    29  H    2.836772   4.025850   2.133602   3.247617   3.351910
    30  H    2.882997   4.046232   2.129418   3.158338   2.924614
                   11         12         13         14         15
    11  C    0.000000
    12  C    1.546888   0.000000
    13  O    1.462929   2.484629   0.000000
    14  H    2.007914   2.648274   0.995335   0.000000
    15  H    7.239990   5.696296   7.819465   7.587188   0.000000
    16  H    5.952908   4.430789   6.752340   6.561031   1.784722
    17  H    5.931892   4.443446   6.357170   5.998396   1.784602
    18  H    7.382701   5.977845   7.656053   7.569746   2.639753
    19  H    6.116999   4.800870   6.182002   5.990245   3.118027
    20  H    6.207506   4.974950   6.409970   6.494975   3.811146
    21  H    7.413381   5.968937   8.144229   8.232313   2.631231
    22  H    6.250277   4.972109   6.976360   7.242579   3.807210
    23  H    6.172823   4.778898   7.131956   7.287461   3.117313
    24  H    2.797453   3.031595   2.644072   3.403859   7.420165
    25  H    3.368800   3.311023   3.910453   4.702872   7.196205
    26  H    2.173189   2.781858   3.323603   4.112564   7.852736
    27  H    2.177696   3.380945   2.486145   3.459366   8.822864
    28  H    1.097438   2.206372   2.138748   2.446645   7.736442
    29  H    2.205956   1.094367   2.628257   2.390105   5.308691
    30  H    2.195516   1.095600   3.410968   3.538001   5.460469
                   16         17         18         19         20
    16  H    0.000000
    17  H    1.778489   0.000000
    18  H    3.814600   3.145223   0.000000
    19  H    3.738307   2.510772   1.781920   0.000000
    20  H    4.297184   3.734620   1.790173   1.784093   0.000000
    21  H    3.142102   3.809852   2.614860   3.802225   3.142396
    22  H    3.737240   4.298625   3.132184   3.759660   2.538607
    23  H    2.514285   3.740645   3.801264   4.313152   3.758843
    24  H    6.644375   6.379816   6.566913   5.439622   4.948127
    25  H    6.321346   6.507679   6.473753   5.766793   4.876179
    26  H    6.502058   6.946827   7.904843   7.028500   6.591140
    27  H    7.633267   7.705154   8.529631   7.408703   7.050272
    28  H    6.295434   6.411256   8.181365   6.936177   7.129923
    29  H    4.182536   3.825126   5.653518   4.282111   4.834021
    30  H    3.961021   4.373542   6.152579   5.192933   5.346903
                   21         22         23         24         25
    21  H    0.000000
    22  H    1.790101   0.000000
    23  H    1.781824   1.783919   0.000000
    24  H    6.949981   5.435249   6.164095   0.000000
    25  H    6.205259   4.526173   5.243851   1.791481   0.000000
    26  H    7.334836   5.922708   5.913150   3.068482   2.469989
    27  H    8.441902   6.952255   7.231630   2.434666   2.778525
    28  H    8.053252   6.995188   6.680984   3.854350   4.262877
    29  H    6.017795   5.251347   5.033765   3.544258   4.151291
    30  H    5.731155   4.879416   4.323278   3.931255   3.789731
                   26         27         28         29         30
    26  H    0.000000
    27  H    1.794942   0.000000
    28  H    2.478228   2.674552   0.000000
    29  H    3.841325   4.191374   2.763575   0.000000
    30  H    2.873022   3.947844   2.424067   1.777417   0.000000
 Stoichiometry    C9H17NO3
 Framework group  C1[X(C9H17NO3)]
 Deg. of freedom    84
 Full point group                 C1      NOp   1
 Largest Abelian subgroup         C1      NOp   1
 Largest concise Abelian subgroup C1      NOp   1
                         Standard orientation:                         
 ---------------------------------------------------------------------
 Center     Atomic      Atomic             Coordinates (Angstroms)
 Number     Number       Type             X           Y           Z
 ---------------------------------------------------------------------
      1          6           0        2.587249    0.289913   -0.015693
      2          6           0        3.069932    1.713353   -0.321201
      3          6           0        2.957926   -0.140060    1.412173
      4          6           0        3.089008   -0.714298   -1.065507
      5          8           0        1.097601    0.430956   -0.126189
      6          6           0        0.298587   -0.686057    0.093813
      7          8           0        0.702775   -1.825111    0.374381
      8          7           0       -1.003636   -0.337652   -0.056819
      9          6           0       -2.102799   -1.322044    0.081638
     10          6           0       -3.240810   -0.631534   -0.702525
     11          6           0       -3.020296    0.852615   -0.352758
     12          6           0       -1.482897    1.010961   -0.417537
     13          8           0       -3.506929    0.960409    1.022643
     14          1           0       -3.242091    1.853269    1.373862
     15          1           0        4.162804    1.755227   -0.276396
     16          1           0        2.738105    2.010812   -1.320495
     17          1           0        2.651977    2.411701    0.410081
     18          1           0        4.047476   -0.182416    1.512607
     19          1           0        2.563333    0.585716    2.131098
     20          1           0        2.526674   -1.121365    1.613878
     21          1           0        4.182443   -0.764803   -1.032997
     22          1           0        2.664375   -1.696575   -0.854867
     23          1           0        2.778670   -0.390497   -2.064604
     24          1           0       -2.388026   -1.432775    1.131483
     25          1           0       -1.792415   -2.284341   -0.327792
     26          1           0       -3.114379   -0.784792   -1.778519
     27          1           0       -4.232356   -0.956319   -0.384775
     28          1           0       -3.533366    1.541958   -1.035352
     29          1           0       -1.116077    1.765335    0.285315
     30          1           0       -1.154665    1.286303   -1.425898
 ---------------------------------------------------------------------
 Rotational constants (GHZ):      1.6817420      0.4146866      0.3803114
 Leave Link  202 at Wed Oct 19 22:46:46 2011, MaxMem=  128000000 cpu:       0.0
 (Enter /home/foresman/gdv/l301.exe)
 Standard basis: 3-21G (6D, 7F)
 Ernie: Thresh=  0.10000D-02 Tol=  0.10000D-05 Strict=F.
 There are   151 symmetry adapted cartesian basis functions of A   symmetry.
 There are   151 symmetry adapted basis functions of A   symmetry.
   151 basis functions,   246 primitive gaussians,   151 cartesian basis functions
    51 alpha electrons       51 beta electrons
       nuclear repulsion energy       879.7727162661 Hartrees.
 IExCor=  402 DFT=T Ex+Corr=B3LYP ExCW=0 ScaHFX=  0.200000
 ScaDFX=  0.800000  0.720000  1.000000  0.810000 ScalE2=  1.000000  1.000000
 IRadAn=      0 IRanWt=     -1 IRanGd=            0 ICorTp=0 IEmpDi=  4
 NAtoms=   30 NActive=   30 NUniq=   30 SFac= 1.00D+00 NAtFMM=   60 NAOKFM=F Big=F
 Integral buffers will be    131072 words long.
 Raffenetti 2 integral format.
 Two-electron integral symmetry is turned on.
 Leave Link  301 at Wed Oct 19 22:46:46 2011, MaxMem=  128000000 cpu:       0.5
 (Enter /home/foresman/gdv/l302.exe)
 NPDir=0 NMtPBC=     1 NCelOv=     1 NCel=       1 NClECP=     1 NCelD=      1
         NCelK=      1 NCelE2=     1 NClLst=     1 CellRange=     0.0.
 One-electron integrals computed using PRISM.
 NBasis=   151 RedAO= T EigKep=  9.23D-03  NBF=   151
 NBsUse=   151 1.00D-06 EigRej= -1.00D+00 NBFU=   151
 Precomputing XC quadrature grid using
 IXCGrd= 2 IRadAn=           0 IRanWt=          -1 IRanGd=           0 AccXCQ= 0.00D+00.
 NRdTot=    1896 NPtTot=      240388 NUsed=      254063 NTot=      254095
 NSgBfM=   149   149   149   149   149 NAtAll=    30    30.
 Leave Link  302 at Wed Oct 19 22:46:46 2011, MaxMem=  128000000 cpu:       2.1
 (Enter /home/foresman/gdv/l303.exe)
 DipDrv:  MaxL=2.
 Leave Link  303 at Wed Oct 19 22:46:46 2011, MaxMem=  128000000 cpu:       0.4
 (Enter /home/foresman/gdv/l401.exe)
 ExpMin= 1.83D-01 ExpMax= 3.22D+02 ExpMxC= 3.22D+02 IAcc=1 IRadAn=         1 AccDes= 0.00D+00
 Harris functional with IExCor=  402 and IRadAn=       1 diagonalized for initial guess.
 HarFok:  IExCor=  402 AccDes= 0.00D+00 IRadAn=         1 IDoV= 1 UseB2=F ITyADJ=14
 ICtDFT=  3500011 ScaDFX=  1.000000  1.000000  1.000000  1.000000
 FoFCou: FMM=F IPFlag=           0 FMFlag=      100000 FMFlg1=           0
         NFxFlg=           0 DoJE=T BraDBF=F KetDBF=T FulRan=T
         wScrn=  0.000000 ICntrl=     500 IOpCl=  0 I1Cent=   200000004 NGrid=           0
         NMat0=    1 NMatS0=      1 NMatT0=    0 NMatD0=    1 NMtDS0=    0 NMtDT0=    0
 Petite list used in FoFCou.
 Harris En= -630.190050069375    
 Initial guess orbital symmetries:
       Occupied  (A) (A) (A) (A) (A) (A) (A) (A) (A) (A) (A) (A)
                 (A) (A) (A) (A) (A) (A) (A) (A) (A) (A) (A) (A)
                 (A) (A) (A) (A) (A) (A) (A) (A) (A) (A) (A) (A)
                 (A) (A) (A) (A) (A) (A) (A) (A) (A) (A) (A) (A)
                 (A) (A) (A)
       Virtual   (A) (A) (A) (A) (A) (A) (A) (A) (A) (A) (A) (A)
                 (A) (A) (A) (A) (A) (A) (A) (A) (A) (A) (A) (A)
                 (A) (A) (A) (A) (A) (A) (A) (A) (A) (A) (A) (A)
                 (A) (A) (A) (A) (A) (A) (A) (A) (A) (A) (A) (A)
                 (A) (A) (A) (A) (A) (A) (A) (A) (A) (A) (A) (A)
                 (A) (A) (A) (A) (A) (A) (A) (A) (A) (A) (A) (A)
                 (A) (A) (A) (A) (A) (A) (A) (A) (A) (A) (A) (A)
                 (A) (A) (A) (A) (A) (A) (A) (A) (A) (A) (A) (A)
                 (A) (A) (A) (A)
 The electronic state of the initial guess is 1-A.
 Leave Link  401 at Wed Oct 19 22:46:47 2011, MaxMem=  128000000 cpu:       2.8
 (Enter /home/foresman/gdv/l502.exe)
 Closed shell SCF:
 Using DIIS extrapolation, IDIIS=  1040.
 Integral symmetry usage will be decided dynamically.
       253780 words used for storage of precomputed grid.
 Keep R1 ints in memory in canonical form, NReq=67953581.
 IVT=      342727 IEndB=      342727 NGot=   128000000 MDV=    61802248
 LenX=    61802248 LenY=    61779006
 Requested convergence on RMS density matrix=1.00D-08 within 128 cycles.
 Requested convergence on MAX density matrix=1.00D-06.
 Requested convergence on             energy=1.00D-06.
 No special actions if energy rises.
 FoFCou: FMM=F IPFlag=           0 FMFlag=           0 FMFlg1=           0
         NFxFlg=           0 DoJE=F BraDBF=F KetDBF=F FulRan=T
         wScrn=  0.000000 ICntrl=     600 IOpCl=  0 I1Cent=           0 NGrid=           0
         NMat0=    1 NMatS0=  11476 NMatT0=    0 NMatD0=    1 NMtDS0=    0 NMtDT0=    0
 Symmetry not used in FoFCou.
 Integral accuracy reduced to 1.0D-05 until final iterations.

 Cycle   1  Pass 0  IDiag  1:
 E= -629.845991339291    
 DIIS: error= 4.50D-02 at cycle   1 NSaved=   1.
 NSaved= 1 IEnMin= 1 EnMin= -629.845991339291     IErMin= 1 ErrMin= 4.50D-02
 ErrMax= 4.50D-02  0.00D+00 EMaxC= 1.00D-01 BMatC= 3.68D-01 BMatP= 3.68D-01
 IDIUse=3 WtCom= 5.50D-01 WtEn= 4.50D-01
 Coeff-Com:  0.100D+01
 Coeff-En:   0.100D+01
 Coeff:      0.100D+01
 Gap=     0.268 Goal=   None    Shift=    0.000
 GapD=    0.268 DampG=1.000 DampE=0.500 DampFc=0.5000 IDamp=-1.
 Damping current iteration by 5.00D-01
 RMSDP=9.11D-03 MaxDP=1.57D-01              OVMax= 3.26D-01

 Cycle   2  Pass 0  IDiag  1:
 E= -629.946682026112     Delta-E=       -0.100690686821 Rises=F Damp=T
 DIIS: error= 3.06D-02 at cycle   2 NSaved=   2.
 NSaved= 2 IEnMin= 2 EnMin= -629.946682026112     IErMin= 2 ErrMin= 3.06D-02
 ErrMax= 3.06D-02  0.00D+00 EMaxC= 1.00D-01 BMatC= 5.15D-02 BMatP= 3.68D-01
 IDIUse=3 WtCom= 6.94D-01 WtEn= 3.06D-01
 Coeff-Com:  0.204D+00 0.796D+00
 Coeff-En:   0.314D+00 0.686D+00
 Coeff:      0.238D+00 0.762D+00
 Gap=     0.293 Goal=   None    Shift=    0.000
 RMSDP=2.79D-03 MaxDP=6.07D-02 DE=-1.01D-01 OVMax= 2.04D-01

 Cycle   3  Pass 0  IDiag  1:
 E= -630.127291710117     Delta-E=       -0.180609684005 Rises=F Damp=F
 DIIS: error= 3.70D-02 at cycle   3 NSaved=   3.
 NSaved= 3 IEnMin= 3 EnMin= -630.127291710117     IErMin= 2 ErrMin= 3.06D-02
 ErrMax= 3.70D-02  0.00D+00 EMaxC= 1.00D-01 BMatC= 6.08D-02 BMatP= 5.15D-02
 IDIUse=2 WtCom= 0.00D+00 WtEn= 1.00D+00
 Coeff-En:   0.000D+00 0.000D+00 0.100D+01
 Coeff:      0.000D+00 0.000D+00 0.100D+01
 Gap=     0.329 Goal=   None    Shift=    0.000
 RMSDP=5.20D-03 MaxDP=1.29D-01 DE=-1.81D-01 OVMax= 3.04D-01

 Cycle   4  Pass 0  IDiag  1:
 E= -629.889064456237     Delta-E=        0.238227253880 Rises=F Damp=F
 DIIS: error= 1.02D-01 at cycle   4 NSaved=   4.
 NSaved= 4 IEnMin= 3 EnMin= -630.127291710117     IErMin= 2 ErrMin= 3.06D-02
 ErrMax= 1.02D-01  0.00D+00 EMaxC= 1.00D-01 BMatC= 3.67D-01 BMatP= 5.15D-02
 IDIUse=2 WtCom= 0.00D+00 WtEn= 1.00D+00
 Coeff-En:   0.000D+00 0.000D+00 0.797D+00 0.203D+00
 Coeff:      0.000D+00 0.000D+00 0.797D+00 0.203D+00
 Gap=     0.284 Goal=   None    Shift=    0.000
 RMSDP=2.82D-03 MaxDP=7.31D-02 DE= 2.38D-01 OVMax= 1.43D-01

 Cycle   5  Pass 0  IDiag  1:
 E= -630.158506297178     Delta-E=       -0.269441840941 Rises=F Damp=F
 DIIS: error= 2.47D-02 at cycle   5 NSaved=   5.
 NSaved= 5 IEnMin= 5 EnMin= -630.158506297178     IErMin= 5 ErrMin= 2.47D-02
 ErrMax= 2.47D-02  0.00D+00 EMaxC= 1.00D-01 BMatC= 2.44D-02 BMatP= 5.15D-02
 IDIUse=3 WtCom= 7.53D-01 WtEn= 2.47D-01
 Coeff-Com: -0.987D-02 0.505D-01 0.321D+00-0.667D-01 0.705D+00
 Coeff-En:   0.000D+00 0.000D+00 0.325D+00 0.000D+00 0.675D+00
 Coeff:     -0.743D-02 0.380D-01 0.322D+00-0.502D-01 0.697D+00
 Gap=     0.302 Goal=   None    Shift=    0.000
 RMSDP=1.04D-03 MaxDP=2.56D-02 DE=-2.69D-01 OVMax= 4.23D-02

 Cycle   6  Pass 0  IDiag  1:
 E= -630.178301968017     Delta-E=       -0.019795670839 Rises=F Damp=F
 DIIS: error= 2.24D-03 at cycle   6 NSaved=   6.
 NSaved= 6 IEnMin= 6 EnMin= -630.178301968017     IErMin= 6 ErrMin= 2.24D-03
 ErrMax= 2.24D-03  0.00D+00 EMaxC= 1.00D-01 BMatC= 2.46D-04 BMatP= 2.44D-02
 IDIUse=3 WtCom= 9.78D-01 WtEn= 2.24D-02
 Coeff-Com: -0.895D-02 0.226D-01 0.134D+00-0.442D-01 0.393D+00 0.503D+00
 Coeff-En:   0.000D+00 0.000D+00 0.000D+00 0.000D+00 0.000D+00 0.100D+01
 Coeff:     -0.875D-02 0.221D-01 0.131D+00-0.432D-01 0.385D+00 0.514D+00
 Gap=     0.286 Goal=   None    Shift=    0.000
 RMSDP=1.08D-04 MaxDP=3.12D-03 DE=-1.98D-02 OVMax= 5.60D-03

 Cycle   7  Pass 0  IDiag  1:
 E= -630.178495108676     Delta-E=       -0.000193140659 Rises=F Damp=F
 DIIS: error= 3.99D-04 at cycle   7 NSaved=   7.
 NSaved= 7 IEnMin= 7 EnMin= -630.178495108676     IErMin= 7 ErrMin= 3.99D-04
 ErrMax= 3.99D-04  0.00D+00 EMaxC= 1.00D-01 BMatC= 8.80D-06 BMatP= 2.46D-04
 IDIUse=3 WtCom= 9.96D-01 WtEn= 3.99D-03
 Coeff-Com: -0.325D-02 0.799D-02 0.375D-01-0.176D-01 0.131D+00 0.256D+00
 Coeff-Com:  0.589D+00
 Coeff-En:   0.000D+00 0.000D+00 0.000D+00 0.000D+00 0.000D+00 0.000D+00
 Coeff-En:   0.100D+01
 Coeff:     -0.324D-02 0.796D-02 0.373D-01-0.175D-01 0.130D+00 0.255D+00
 Coeff:      0.590D+00
 Gap=     0.286 Goal=   None    Shift=    0.000
 RMSDP=1.80D-05 MaxDP=4.27D-04 DE=-1.93D-04 OVMax= 6.20D-04

 Cycle   8  Pass 0  IDiag  1:
 E= -630.178501808585     Delta-E=       -0.000006699909 Rises=F Damp=F
 DIIS: error= 6.88D-05 at cycle   8 NSaved=   8.
 NSaved= 8 IEnMin= 8 EnMin= -630.178501808585     IErMin= 8 ErrMin= 6.88D-05
 ErrMax= 6.88D-05  0.00D+00 EMaxC= 1.00D-01 BMatC= 4.93D-07 BMatP= 8.80D-06
 IDIUse=1 WtCom= 1.00D+00 WtEn= 0.00D+00
 Coeff-Com: -0.204D-03-0.145D-03 0.241D-02-0.146D-02 0.114D-01 0.739D-01
 Coeff-Com:  0.269D+00 0.645D+00
 Coeff:     -0.204D-03-0.145D-03 0.241D-02-0.146D-02 0.114D-01 0.739D-01
 Coeff:      0.269D+00 0.645D+00
 Gap=     0.286 Goal=   None    Shift=    0.000
 RMSDP=5.54D-06 MaxDP=8.81D-05 DE=-6.70D-06 OVMax= 1.89D-04

 Initial convergence to 1.0D-05 achieved.  Increase integral accuracy.
 Cycle   9  Pass 1  IDiag  1:
 E= -630.178613242774     Delta-E=       -0.000111434189 Rises=F Damp=F
 DIIS: error= 1.48D-05 at cycle   1 NSaved=   1.
 NSaved= 1 IEnMin= 1 EnMin= -630.178613242774     IErMin= 1 ErrMin= 1.48D-05
 ErrMax= 1.48D-05  0.00D+00 EMaxC= 1.00D-01 BMatC= 5.61D-08 BMatP= 5.61D-08
 IDIUse=1 WtCom= 1.00D+00 WtEn= 0.00D+00
 Coeff-Com:  0.100D+01
 Coeff:      0.100D+01
 Gap=     0.286 Goal=   None    Shift=    0.000
 RMSDP=5.54D-06 MaxDP=8.81D-05 DE=-1.11D-04 OVMax= 8.43D-05

 Cycle  10  Pass 1  IDiag  1:
 E= -630.178613288645     Delta-E=       -0.000000045871 Rises=F Damp=F
 DIIS: error= 2.55D-05 at cycle   2 NSaved=   2.
 NSaved= 2 IEnMin= 2 EnMin= -630.178613288645     IErMin= 1 ErrMin= 1.48D-05
 ErrMax= 2.55D-05  0.00D+00 EMaxC= 1.00D-01 BMatC= 3.75D-08 BMatP= 5.61D-08
 IDIUse=1 WtCom= 1.00D+00 WtEn= 0.00D+00
 Coeff-Com:  0.432D+00 0.568D+00
 Coeff:      0.432D+00 0.568D+00
 Gap=     0.286 Goal=   None    Shift=    0.000
 RMSDP=1.85D-06 MaxDP=5.06D-05 DE=-4.59D-08 OVMax= 8.34D-05

 Cycle  11  Pass 1  IDiag  1:
 E= -630.178613308617     Delta-E=       -0.000000019972 Rises=F Damp=F
 DIIS: error= 1.54D-05 at cycle   3 NSaved=   3.
 NSaved= 3 IEnMin= 3 EnMin= -630.178613308617     IErMin= 1 ErrMin= 1.48D-05
 ErrMax= 1.54D-05  0.00D+00 EMaxC= 1.00D-01 BMatC= 1.17D-08 BMatP= 3.75D-08
 IDIUse=1 WtCom= 1.00D+00 WtEn= 0.00D+00
 Coeff-Com: -0.119D-02 0.356D+00 0.646D+00
 Coeff:     -0.119D-02 0.356D+00 0.646D+00
 Gap=     0.286 Goal=   None    Shift=    0.000
 RMSDP=7.11D-07 MaxDP=2.62D-05 DE=-2.00D-08 OVMax= 3.39D-05

 Cycle  12  Pass 1  IDiag  1:
 E= -630.178613316831     Delta-E=       -0.000000008215 Rises=F Damp=F
 DIIS: error= 2.83D-06 at cycle   4 NSaved=   4.
 NSaved= 4 IEnMin= 4 EnMin= -630.178613316831     IErMin= 4 ErrMin= 2.83D-06
 ErrMax= 2.83D-06  0.00D+00 EMaxC= 1.00D-01 BMatC= 6.20D-10 BMatP= 1.17D-08
 IDIUse=1 WtCom= 1.00D+00 WtEn= 0.00D+00
 Coeff-Com: -0.161D-01 0.185D+00 0.369D+00 0.462D+00
 Coeff:     -0.161D-01 0.185D+00 0.369D+00 0.462D+00
 Gap=     0.286 Goal=   None    Shift=    0.000
 RMSDP=1.98D-07 MaxDP=7.22D-06 DE=-8.21D-09 OVMax= 6.54D-06

 Cycle  13  Pass 1  IDiag  1:
 E= -630.178613317334     Delta-E=       -0.000000000502 Rises=F Damp=F
 DIIS: error= 1.21D-06 at cycle   5 NSaved=   5.
 NSaved= 5 IEnMin= 5 EnMin= -630.178613317334     IErMin= 5 ErrMin= 1.21D-06
 ErrMax= 1.21D-06  0.00D+00 EMaxC= 1.00D-01 BMatC= 5.16D-11 BMatP= 6.20D-10
 IDIUse=1 WtCom= 1.00D+00 WtEn= 0.00D+00
 Coeff-Com: -0.921D-02 0.876D-01 0.178D+00 0.287D+00 0.456D+00
 Coeff:     -0.921D-02 0.876D-01 0.178D+00 0.287D+00 0.456D+00
 Gap=     0.286 Goal=   None    Shift=    0.000
 RMSDP=5.98D-08 MaxDP=1.21D-06 DE=-5.02D-10 OVMax= 2.40D-06

 Cycle  14  Pass 1  IDiag  1:
 E= -630.178613317383     Delta-E=       -0.000000000049 Rises=F Damp=F
 DIIS: error= 3.87D-07 at cycle   6 NSaved=   6.
 NSaved= 6 IEnMin= 6 EnMin= -630.178613317383     IErMin= 6 ErrMin= 3.87D-07
 ErrMax= 3.87D-07  0.00D+00 EMaxC= 1.00D-01 BMatC= 6.87D-12 BMatP= 5.16D-11
 IDIUse=1 WtCom= 1.00D+00 WtEn= 0.00D+00
 Coeff-Com: -0.279D-02 0.205D-01 0.419D-01 0.961D-01 0.287D+00 0.557D+00
 Coeff:     -0.279D-02 0.205D-01 0.419D-01 0.961D-01 0.287D+00 0.557D+00
 Gap=     0.286 Goal=   None    Shift=    0.000
 RMSDP=1.68D-08 MaxDP=3.51D-07 DE=-4.91D-11 OVMax= 7.12D-07

 Cycle  15  Pass 1  IDiag  1:
 E= -630.178613317389     Delta-E=       -0.000000000006 Rises=F Damp=F
 DIIS: error= 4.20D-08 at cycle   7 NSaved=   7.
 NSaved= 7 IEnMin= 7 EnMin= -630.178613317389     IErMin= 7 ErrMin= 4.20D-08
 ErrMax= 4.20D-08  0.00D+00 EMaxC= 1.00D-01 BMatC= 2.62D-13 BMatP= 6.87D-12
 IDIUse=1 WtCom= 1.00D+00 WtEn= 0.00D+00
 Coeff-Com: -0.630D-03 0.281D-02 0.579D-02 0.230D-01 0.101D+00 0.244D+00
 Coeff-Com:  0.624D+00
 Coeff:     -0.630D-03 0.281D-02 0.579D-02 0.230D-01 0.101D+00 0.244D+00
 Coeff:      0.624D+00
 Gap=     0.286 Goal=   None    Shift=    0.000
 RMSDP=4.68D-09 MaxDP=1.33D-07 DE=-5.91D-12 OVMax= 8.99D-08

 SCF Done:  E(RB3LYP) =  -630.178613317     A.U. after   15 cycles
            NFock= 15  Conv=0.47D-08     -V/T= 2.0085
 KE= 6.248562572470D+02 PE=-3.229277614886D+03 EE= 1.094470028056D+03
 Leave Link  502 at Wed Oct 19 22:46:59 2011, MaxMem=  128000000 cpu:      97.3
 (Enter /home/foresman/gdv/l801.exe)
 DoSCS=F DFT=T ScalE2(SS,OS)=  1.000000  1.000000
 Range of M.O.s used for correlation:     1   151
 NBasis=   151 NAE=    51 NBE=    51 NFC=     0 NFV=     0
 NROrb=    151 NOA=    51 NOB=    51 NVA=   100 NVB=   100
 Leave Link  801 at Wed Oct 19 22:46:59 2011, MaxMem=  128000000 cpu:       0.3
 (Enter /home/foresman/gdv/l1002.exe)
 Minotr:  Closed shell wavefunction.
          Direct CPHF calculation.
          Differentiating once with respect to magnetic field using GIAOs.
          Electric field/nuclear overlap derivatives assumed to be zero.
          Requested convergence is 1.0D-08 RMS, and 1.0D-07 maximum.
          Secondary convergence is 1.0D-12 RMS, and 1.0D-12 maximum.
          NewPWx=T KeepS1=F KeepF1=F KeepIn=T MapXYZ=F SortEE=F KeepMc=T.
          MDV=     127999605 using IRadAn=       2.
 Generate precomputed XC quadrature information.
 Keep R3 ints in memory in canonical form, NReq=67618787.
 FoFCou: FMM=F IPFlag=           0 FMFlag=           0 FMFlg1=           0
         NFxFlg=           0 DoJE=F BraDBF=F KetDBF=F FulRan=T
         wScrn=  0.000000 ICntrl=     600 IOpCl=  0 I1Cent=           0 NGrid=           0
         NMat0=    1 NMatS0=  11476 NMatT0=    0 NMatD0=    1 NMtDS0=    0 NMtDT0=    0
 Symmetry not used in FoFCou.
          Solving linear equations simultaneously, MaxMat=       0.
 FoFJK:  IHMeth= 1 ICntrl=    6127 DoSepK=F KAlg= 0 I1Cent=   0 FoldK=F
 IRaf=       1 NMat=   1 IRICut=       1 DoRegI=T DoRafI=F ISym2E= 0.
          There are     3 degrees of freedom in the 1st order CPHF.  IDoFFX=0 NUNeed=     3.
      3 vectors produced by pass  0 Test12= 1.70D-13 3.33D-08 XBig12= 2.79D+01 7.55D-01.
 AX will form     3 AO Fock derivatives at one time.
      3 vectors produced by pass  1 Test12= 1.70D-13 3.33D-08 XBig12= 3.11D-02 7.43D-02.
      3 vectors produced by pass  2 Test12= 1.70D-13 3.33D-08 XBig12= 1.87D-04 6.34D-03.
      3 vectors produced by pass  3 Test12= 1.70D-13 3.33D-08 XBig12= 3.99D-07 1.73D-04.
      3 vectors produced by pass  4 Test12= 1.70D-13 3.33D-08 XBig12= 8.91D-10 9.90D-06.
      3 vectors produced by pass  5 Test12= 1.70D-13 3.33D-08 XBig12= 2.94D-12 4.04D-07.
 InvSVY:  IOpt=1 It=  1 EMax= 8.88D-16
 Solved reduced A of dimension    18 with     3 vectors.
 Calculating GIAO nuclear magnetic shielding tensors.
 SCF GIAO Magnetic shielding tensor (ppm):
      1  C    Isotropic =   124.5008   Anisotropy =    68.5215
   XX=   170.0107   YX=    -0.0451   ZX=     3.5244
   XY=     0.3681   YY=    99.9118   ZY=     0.9633
   XZ=     3.2160   YZ=     1.0364   ZZ=   103.5801
   Eigenvalues:    99.6502   103.6705   170.1819
      2  C    Isotropic =   173.8229   Anisotropy =    40.9984
   XX=   164.2011   YX=    12.1877   ZX=    -2.7046
   XY=     9.7541   YY=   196.0751   ZY=    -7.8320
   XZ=    -2.2462   YZ=    -7.7337   ZZ=   161.1925
   Eigenvalues:   159.5214   160.7921   201.1552
      3  C    Isotropic =   178.7296   Anisotropy =    35.3380
   XX=   171.0189   YX=    -5.8190   ZX=     6.5922
   XY=    -6.4113   YY=   164.9944   ZY=    -6.8874
   XZ=     2.4125   YZ=    -5.8931   ZZ=   200.1755
   Eigenvalues:   160.9284   172.9722   202.2882
      4  C    Isotropic =   178.5895   Anisotropy =    35.4814
   XX=   171.9731   YX=    -9.9426   ZX=    -5.5630
   XY=    -8.5805   YY=   176.4350   ZY=    17.4719
   XZ=    -1.8083   YZ=    16.6945   ZZ=   187.3606
   Eigenvalues:   160.9119   172.6129   202.2438
      5  O    Isotropic =   159.4610   Anisotropy =    79.9903
   XX=   127.1144   YX=    10.6859   ZX=    -5.5509
   XY=   127.3012   YY=   156.1060   ZY=    16.7726
   XZ=   -40.5601   YZ=    13.2053   ZZ=   195.1627
   Eigenvalues:    65.3469   200.2483   212.7879
      6  C    Isotropic =    62.4846   Anisotropy =    64.2563
   XX=    10.8646   YX=   -37.5894   ZX=     4.5496
   XY=   -54.7021   YY=    82.2333   ZY=     0.2924
   XZ=     9.1343   YZ=     1.6148   ZZ=    94.3558
   Eigenvalues:   -12.1889    94.3205   105.3221
      7  O    Isotropic =    44.8885   Anisotropy =   378.3374
   XX=   -63.8513   YX=     7.9593   ZX=   -16.1686
   XY=    -4.5946   YY=   -72.2210   ZY=    87.4593
   XZ=   -27.6538   YZ=   105.0991   ZZ=   270.7377
   Eigenvalues:   -98.9148   -63.5332   297.1134
      8  N    Isotropic =   176.4965   Anisotropy =   133.1469
   XX=   260.2521   YX=   -10.2999   ZX=    16.6042
   XY=   -24.2874   YY=   129.3512   ZY=     4.3509
   XZ=    21.9912   YZ=     4.1868   ZZ=   139.8861
   Eigenvalues:   123.7876   140.4408   265.2611
      9  C    Isotropic =   158.3619   Anisotropy =    48.6053
   XX=   176.3190   YX=    22.1997   ZX=     6.4996
   XY=    18.7334   YY=   160.6643   ZY=    -2.0501
   XZ=    11.7418   YZ=    -9.3890   ZZ=   138.1025
   Eigenvalues:   131.3717   152.9486   190.7655
     10  C    Isotropic =   169.2568   Anisotropy =    21.8201
   XX=   169.5025   YX=     0.9819   ZX=     1.8125
   XY=     4.8556   YY=   182.7682   ZY=     3.5550
   XZ=    10.8976   YZ=     0.5446   ZZ=   155.4996
   Eigenvalues:   153.0201   170.9467   183.8035
     11  C    Isotropic =   130.9464   Anisotropy =    30.7863
   XX=   130.2607   YX=    -2.0232   ZX=    -7.6364
   XY=    -2.6737   YY=   122.2818   ZY=     5.3372
   XZ=   -16.5304   YZ=    14.2670   ZZ=   140.2968
   Eigenvalues:   117.0565   124.3121   151.4706
     12  C    Isotropic =   149.0124   Anisotropy =    31.4741
   XX=   164.8695   YX=    -6.1832   ZX=     1.8677
   XY=   -12.9015   YY=   151.7192   ZY=     1.6986
   XZ=     1.9123   YZ=    -3.5745   ZZ=   130.4486
   Eigenvalues:   130.3359   146.7062   169.9952
     13  O    Isotropic =   257.3477   Anisotropy =    87.6697
   XX=   262.5326   YX=    38.5274   ZX=     2.0885
   XY=    30.9337   YY=   271.5566   ZY=    59.3218
   XZ=   -16.7041   YZ=    31.6694   ZZ=   237.9540
   Eigenvalues:   195.4148   260.8342   315.7942
     14  H    Isotropic =    32.4689   Anisotropy =    15.2906
   XX=    27.8102   YX=     2.3778   ZX=    -1.5596
   XY=     1.0214   YY=    36.9974   ZY=     7.6089
   XZ=    -1.8878   YZ=     7.4773   ZZ=    32.5992
   Eigenvalues:    24.9355    29.8086    42.6627
     15  H    Isotropic =    31.7877   Anisotropy =     8.8256
   XX=    35.6210   YX=     3.3021   ZX=    -0.4027
   XY=     3.6927   YY=    31.5089   ZY=    -0.5710
   XZ=    -0.5123   YZ=    -0.5802   ZZ=    28.2332
   Eigenvalues:    28.1302    29.5615    37.6715
     16  H    Isotropic =    31.3743   Anisotropy =     7.8496
   XX=    28.9243   YX=     0.7655   ZX=     0.1475
   XY=     0.1425   YY=    32.4061   ZY=    -4.6220
   XZ=     0.6112   YZ=    -3.3844   ZZ=    32.7926
   Eigenvalues:    28.1444    29.3711    36.6074
     17  H    Isotropic =    31.3828   Anisotropy =     7.9664
   XX=    29.0856   YX=     0.2714   ZX=    -0.6202
   XY=    -0.6330   YY=    35.6734   ZY=     3.2759
   XZ=    -0.7827   YZ=     2.1150   ZZ=    29.3894
   Eigenvalues:    28.0448    29.4099    36.6937
     18  H    Isotropic =    31.9708   Anisotropy =     9.1359
   XX=    35.7302   YX=    -1.1814   ZX=     3.3711
   XY=    -1.3534   YY=    28.3449   ZY=    -0.9101
   XZ=     3.6974   YZ=    -0.8392   ZZ=    31.8374
   Eigenvalues:    28.0952    29.7559    38.0614
     19  H    Isotropic =    31.8176   Anisotropy =     7.8281
   XX=    29.6925   YX=    -0.5905   ZX=     0.3948
   XY=    -0.5293   YY=    29.7444   ZY=     2.0313
   XZ=    -0.6724   YZ=     3.3803   ZZ=    36.0158
   Eigenvalues:    28.5394    29.8770    37.0363
     20  H    Isotropic =    29.7191   Anisotropy =     6.5196
   XX=    28.6635   YX=     2.1615   ZX=     2.1075
   XY=     2.9037   YY=    31.1953   ZY=    -2.7670
   XZ=     2.6421   YZ=    -4.4658   ZZ=    29.2984
   Eigenvalues:    23.9824    31.1094    34.0655
     21  H    Isotropic =    31.9812   Anisotropy =     9.1551
   XX=    36.3390   YX=    -2.5262   ZX=    -1.9906
   XY=    -2.8335   YY=    29.6183   ZY=     1.6064
   XZ=    -2.2692   YZ=     1.6382   ZZ=    29.9862
   Eigenvalues:    28.0999    29.7591    38.0846
     22  H    Isotropic =    29.7670   Anisotropy =     6.5964
   XX=    29.2237   YX=     0.6475   ZX=    -2.5603
   XY=     1.2359   YY=    33.8379   ZY=     0.6385
   XZ=    -3.4161   YZ=     2.3985   ZZ=    26.2394
   Eigenvalues:    24.0648    31.0716    34.1646
     23  H    Isotropic =    31.8393   Anisotropy =     7.7743
   XX=    29.7176   YX=    -0.6789   ZX=    -0.8179
   XY=    -0.2996   YY=    28.8919   ZY=     1.4997
   XZ=     0.1109   YZ=     0.2224   ZZ=    36.9084
   Eigenvalues:    28.6143    29.8814    37.0222
     24  H    Isotropic =    28.9029   Anisotropy =     9.4089
   XX=    28.2671   YX=     1.7264   ZX=    -2.5452
   XY=     1.4034   YY=    27.1823   ZY=    -4.2246
   XZ=    -2.1460   YZ=    -4.4761   ZZ=    31.2594
   Eigenvalues:    24.4153    27.1180    35.1755
     25  H    Isotropic =    29.3240   Anisotropy =     8.1691
   XX=    29.5844   YX=     1.1753   ZX=     0.8703
   XY=    -0.3170   YY=    34.4541   ZY=     1.6875
   XZ=     0.6098   YZ=     1.6592   ZZ=    23.9333
   Eigenvalues:    23.5993    29.6026    34.7700
     26  H    Isotropic =    31.2044   Anisotropy =     9.8643
   XX=    28.7676   YX=    -0.0286   ZX=     2.3477
   XY=     0.4959   YY=    29.0457   ZY=     2.7788
   XZ=     3.4789   YZ=     3.0933   ZZ=    35.7999
   Eigenvalues:    27.1510    28.6816    37.7807
     27  H    Isotropic =    30.8416   Anisotropy =    10.6323
   XX=    36.5662   YX=     2.9945   ZX=     0.1089
   XY=     3.7629   YY=    29.4174   ZY=    -0.1389
   XZ=     0.6571   YZ=     0.7606   ZZ=    26.5411
   Eigenvalues:    26.5078    28.0871    37.9298
     28  H    Isotropic =    28.7562   Anisotropy =     7.6801
   XX=    28.3785   YX=    -3.0178   ZX=     0.9645
   XY=    -3.1276   YY=    28.5826   ZY=    -2.6501
   XZ=     2.3613   YZ=    -3.1176   ZZ=    29.3075
   Eigenvalues:    25.1472    27.2451    33.8763
     29  H    Isotropic =    30.0678   Anisotropy =     6.1288
   XX=    31.0720   YX=     0.0975   ZX=     1.0161
   XY=     0.6338   YY=    33.1152   ZY=     2.7967
   XZ=     0.7165   YZ=     2.6032   ZZ=    26.0161
   Eigenvalues:    25.0234    31.0263    34.1536
     30  H    Isotropic =    29.5596   Anisotropy =     7.2321
   XX=    29.7072   YX=    -0.0811   ZX=    -1.6043
   XY=    -0.0551   YY=    28.5967   ZY=    -3.7481
   XZ=    -2.2470   YZ=    -4.9289   ZZ=    30.3749
   Eigenvalues:    24.7183    29.5795    34.3810
 End of Minotr F.D. properties file   721 does not exist.
 End of Minotr F.D. properties file   722 does not exist.
 Leave Link 1002 at Wed Oct 19 22:47:09 2011, MaxMem=  128000000 cpu:      80.5
 (Enter /home/foresman/gdv/l1101.exe)
 Using compressed storage, NAtomX=    30.
 Will process     31 centers per pass.
 Leave Link 1101 at Wed Oct 19 22:47:09 2011, MaxMem=  128000000 cpu:       1.9
 (Enter /home/foresman/gdv/l1102.exe)
 Symmetrizing basis deriv contribution to polar:
 IMax=3 JMax=2 DiffMx= 0.00D+00
 Leave Link 1102 at Wed Oct 19 22:47:09 2011, MaxMem=  128000000 cpu:       0.4
 (Enter /home/foresman/gdv/l1110.exe)
 Forming Gx(P) for the SCF density, NAtomX=    30.
 Integral derivatives from FoFJK, PRISM(SPDF).
 Do as many integral derivatives as possible in FoFJK.
 G2DrvN: MDV=     127999656.
 G2DrvN: will do    31 centers at a time, making    1 passes.
 Calling FoFCou, ICntrl=  3107 FMM=F I1Cent=   0 AccDes= 0.00D+00.
 FoFJK:  IHMeth= 1 ICntrl=    3107 DoSepK=F KAlg= 0 I1Cent=   0 FoldK=F
 IRaf=       0 NMat=   1 IRICut=       1 DoRegI=T DoRafI=F ISym2E= 0.
 FoFCou: FMM=F IPFlag=           0 FMFlag=      100000 FMFlg1=           0
         NFxFlg=           0 DoJE=F BraDBF=F KetDBF=F FulRan=T
         wScrn=  0.000000 ICntrl=    3107 IOpCl=  0 I1Cent=           0 NGrid=           0
         NMat0=    1 NMatS0=      1 NMatT0=    0 NMatD0=    1 NMtDS0=    0 NMtDT0=    0
 Symmetry not used in FoFCou.
 End of G2Drv F.D. properties file   721 does not exist.
 End of G2Drv F.D. properties file   722 does not exist.
 Leave Link 1110 at Wed Oct 19 22:47:41 2011, MaxMem=  128000000 cpu:     254.8
 (Enter /home/foresman/gdv/l1002.exe)
 Minotr:  Closed shell wavefunction.
          IDoAtm=111111111111111111111111111111
          Direct CPHF calculation.
          Differentiating once with respect to electric field.
                with respect to dipole field.
          Differentiating once with respect to nuclear coordinates.
          Requested convergence is 1.0D-08 RMS, and 1.0D-07 maximum.
          Secondary convergence is 1.0D-12 RMS, and 1.0D-12 maximum.
          NewPWx=T KeepS1=F KeepF1=F KeepIn=T MapXYZ=F SortEE=F KeepMc=T.
          MDV=     127999545 using IRadAn=       2.
 Generate precomputed XC quadrature information.
 Keep R1 ints in memory in canonical form, NReq=67619516.
 FoFCou: FMM=F IPFlag=           0 FMFlag=           0 FMFlg1=           0
         NFxFlg=           0 DoJE=F BraDBF=F KetDBF=F FulRan=T
         wScrn=  0.000000 ICntrl=     600 IOpCl=  0 I1Cent=           0 NGrid=           0
         NMat0=    1 NMatS0=  11476 NMatT0=    0 NMatD0=    1 NMtDS0=    0 NMtDT0=    0
 Symmetry not used in FoFCou.
          Solving linear equations simultaneously, MaxMat=       0.
          There are    93 degrees of freedom in the 1st order CPHF.  IDoFFX=5 NUNeed=    93.
     90 vectors produced by pass  0 Test12= 5.48D-15 1.08D-09 XBig12= 7.45D+01 3.83D+00.
 AX will form    90 AO Fock derivatives at one time.
     90 vectors produced by pass  1 Test12= 5.48D-15 1.08D-09 XBig12= 1.28D+01 9.38D-01.
     90 vectors produced by pass  2 Test12= 5.48D-15 1.08D-09 XBig12= 4.68D-02 2.33D-02.
     90 vectors produced by pass  3 Test12= 5.48D-15 1.08D-09 XBig12= 6.66D-05 9.42D-04.
     90 vectors produced by pass  4 Test12= 5.48D-15 1.08D-09 XBig12= 5.18D-08 2.04D-05.
     42 vectors produced by pass  5 Test12= 5.48D-15 1.08D-09 XBig12= 2.81D-11 4.73D-07.
      3 vectors produced by pass  6 Test12= 5.48D-15 1.08D-09 XBig12= 1.25D-14 8.45D-09.
 InvSVY:  IOpt=1 It=  1 EMax= 8.88D-15
 Solved reduced A of dimension   495 with    93 vectors.
 FullF1:  Do perturbations    1 to     3.
 Isotropic polarizability for W=    0.000000      103.37 Bohr**3.
 Dipole-magnetic dipole polarizability for W=    0.000000:
                 1             2             3 
      1   0.166407D+01 -0.105520D+02 -0.502806D+01
      2   0.158239D+02 -0.524310D+01  0.149882D+02
      3  -0.134133D+02 -0.570145D+00  0.322709D+01
 DQ contribution to OR G for W=    0.000000:
                 1             2             3 
      1   0.473012D+01 -0.243345D+02 -0.334656D+02
      2   0.264331D+02 -0.118065D+02  0.674865D+02
      3   0.707987D+01 -0.568370D+02  0.707642D+01
 Optical Rotation G' tensor for W=    0.000000:
                 1             2             3 
      1   0.174527D+00 -0.105565D+01  0.131213D+01
      2  -0.105565D+01 -0.506054D+00 -0.227333D+01
      3   0.131213D+01 -0.227333D+01 -0.204106D-01
 OR G Eigenvalues:    -2.5535    -0.8164     3.0180  Iso=     0.1173
 Eigenvectors:
   (1)  -0.043583   0.732203   0.679691
   (2)   0.859538   0.374245  -0.348044
   (3)   0.509210  -0.569051   0.645667
 w=    0.000000 a.u., Optical Rotation Beta=      0.1173 au.
 Molar Mass =    187.2382 grams/mole, [Alpha]D (static) =       24.22 deg.
 AAT (total):
  0.0080 -0.0716 -0.1219
  0.0213 -0.0023  0.3634
  0.1051 -0.3461 -0.0029
 -0.0037  0.0403  0.1667
 -0.0187 -0.0353 -0.1697
 -0.1058  0.0224  0.0417
  0.0620 -0.1962 -0.1090
  0.1672 -0.1156 -0.1562
 -0.0046  0.2372  0.0638
 -0.0535  0.1231 -0.1785
 -0.1399  0.1077 -0.2602
  0.0633  0.1617 -0.0730
  0.0089  0.1377  0.2761
 -0.1362  0.0749 -0.2746
 -0.5494  0.3626 -0.0540
 -0.0327  0.0725  0.9315
  0.0013 -0.0938 -0.2557
 -0.2407 -0.0652  0.0903
  0.0166 -0.2194 -1.1375
  0.2122  0.0909  0.0994
  1.0589  0.2852 -0.1160
  0.0247  0.0532 -0.5048
 -0.0356  0.0655  0.4133
  0.1217 -0.4539 -0.0643
  0.0164 -0.1292  0.1035
  0.0604 -0.0206 -0.1133
 -0.0443  0.1660  0.0191
 -0.0230  0.0553  0.0472
 -0.1598 -0.0259  0.1865
  0.1165  0.0300 -0.0524
 -0.0464 -0.1094 -0.0357
 -0.0713  0.1359 -0.3800
  0.1398  0.9349 -0.0757
  0.0125  0.1592  0.0897
 -0.0444 -0.0343 -0.3218
 -0.0892  0.2666  0.1072
 -0.0237 -0.3458  0.0695
  0.3129  0.0228  0.4143
 -0.4800 -1.3163  0.0508
  0.0488  0.1689 -0.1013
 -0.0433 -0.2681  0.1221
  0.3580  0.3609  0.0712
 -0.0111  0.0509  0.1371
  0.0053 -0.0053  0.2433
  0.0644 -0.2638  0.0153
 -0.0585 -0.0635 -0.0524
  0.1896 -0.0685 -0.0099
 -0.0946  0.2307  0.1729
  0.0717  0.0172 -0.0414
 -0.1984  0.1024 -0.1697
  0.0161  0.0926 -0.2195
 -0.0050 -0.1085 -0.0141
 -0.0553  0.0069  0.2654
 -0.0052 -0.2309 -0.0008
 -0.0633  0.0360 -0.0249
 -0.0362  0.2159 -0.1015
  0.1948  0.1602 -0.1012
 -0.0524  0.0815  0.2228
  0.0138 -0.0843 -0.0990
 -0.2309  0.0103  0.1635
  0.0104  0.1272 -0.0712
  0.0287  0.0122  0.2625
 -0.0218 -0.2272 -0.0231
  0.0452  0.0165  0.2575
 -0.0989  0.0056 -0.1884
 -0.1854 -0.0674 -0.0736
  0.0506 -0.0696 -0.0017
  0.1244 -0.1289  0.0249
  0.1584  0.2774  0.0285
  0.0231  0.1631  0.0322
 -0.1866 -0.0606 -0.1610
  0.1649 -0.0843 -0.0019
 -0.0600 -0.0503  0.1193
  0.1215 -0.0165  0.1121
 -0.0991  0.0003  0.1215
  0.0031 -0.1015 -0.0101
  0.1470 -0.0128 -0.0127
  0.0249 -0.2652  0.0346
 -0.0201  0.1378  0.0591
 -0.0716  0.0604 -0.2365
 -0.0554  0.2140 -0.0538
  0.0372 -0.0286 -0.1178
  0.0268  0.0893  0.0676
 -0.0175 -0.1435 -0.0543
 -0.0389  0.1442 -0.1570
 -0.1723 -0.0274  0.1265
 -0.0355 -0.0665  0.1457
  0.0286 -0.1240 -0.0428
  0.1255 -0.0007  0.0396
 -0.1260 -0.1267 -0.1245
 End of Minotr F.D. properties file   721 does not exist.
 End of Minotr F.D. properties file   722 does not exist.
 Leave Link 1002 at Wed Oct 19 22:48:11 2011, MaxMem=  128000000 cpu:     233.2
 (Enter /home/foresman/gdv/l601.exe)
 Copying SCF densities to generalized density rwf, IOpCl= 0 IROHF=0.

 **********************************************************************

            Population analysis using the SCF density.

 **********************************************************************

 Orbital symmetries:
       Occupied  (A) (A) (A) (A) (A) (A) (A) (A) (A) (A) (A) (A)
                 (A) (A) (A) (A) (A) (A) (A) (A) (A) (A) (A) (A)
                 (A) (A) (A) (A) (A) (A) (A) (A) (A) (A) (A) (A)
                 (A) (A) (A) (A) (A) (A) (A) (A) (A) (A) (A) (A)
                 (A) (A) (A)
       Virtual   (A) (A) (A) (A) (A) (A) (A) (A) (A) (A) (A) (A)
                 (A) (A) (A) (A) (A) (A) (A) (A) (A) (A) (A) (A)
                 (A) (A) (A) (A) (A) (A) (A) (A) (A) (A) (A) (A)
                 (A) (A) (A) (A) (A) (A) (A) (A) (A) (A) (A) (A)
                 (A) (A) (A) (A) (A) (A) (A) (A) (A) (A) (A) (A)
                 (A) (A) (A) (A) (A) (A) (A) (A) (A) (A) (A) (A)
                 (A) (A) (A) (A) (A) (A) (A) (A) (A) (A) (A) (A)
                 (A) (A) (A) (A) (A) (A) (A) (A) (A) (A) (A) (A)
                 (A) (A) (A) (A)
 The electronic state is 1-A.
 Alpha  occ. eigenvalues --  -19.05564 -19.03128 -18.99311 -14.27480 -10.25692
 Alpha  occ. eigenvalues --  -10.18574 -10.18562 -10.16318 -10.15309 -10.12749
 Alpha  occ. eigenvalues --  -10.10892 -10.09981 -10.09930  -1.07516  -1.01327
 Alpha  occ. eigenvalues --   -0.99169  -0.93748  -0.80803  -0.77874  -0.73998
 Alpha  occ. eigenvalues --   -0.68879  -0.68438  -0.65693  -0.59648  -0.57596
 Alpha  occ. eigenvalues --   -0.54926  -0.52032  -0.49412  -0.47086  -0.45152
 Alpha  occ. eigenvalues --   -0.44871  -0.44458  -0.43773  -0.42006  -0.41767
 Alpha  occ. eigenvalues --   -0.41284  -0.39009  -0.38447  -0.37987  -0.36869
 Alpha  occ. eigenvalues --   -0.36678  -0.36031  -0.35665  -0.33793  -0.33751
 Alpha  occ. eigenvalues --   -0.32162  -0.31432  -0.26565  -0.26341  -0.24072
 Alpha  occ. eigenvalues --   -0.22498
 Alpha virt. eigenvalues --    0.06105   0.08241   0.10624   0.11748   0.13206
 Alpha virt. eigenvalues --    0.14092   0.15604   0.16302   0.16888   0.17270
 Alpha virt. eigenvalues --    0.17822   0.18063   0.18609   0.19393   0.19750
 Alpha virt. eigenvalues --    0.20392   0.21261   0.21847   0.22110   0.23857
 Alpha virt. eigenvalues --    0.24109   0.24640   0.25419   0.25760   0.26430
 Alpha virt. eigenvalues --    0.28407   0.28763   0.29404   0.29886   0.42405
 Alpha virt. eigenvalues --    0.49196   0.65221   0.65905   0.66418   0.67973
 Alpha virt. eigenvalues --    0.68114   0.69451   0.70310   0.72020   0.74235
 Alpha virt. eigenvalues --    0.75366   0.75611   0.76352   0.76366   0.77616
 Alpha virt. eigenvalues --    0.80023   0.82048   0.83258   0.86353   0.87705
 Alpha virt. eigenvalues --    0.91139   0.92172   0.93472   0.95817   0.96728
 Alpha virt. eigenvalues --    0.97488   0.99910   1.01903   1.01941   1.04192
 Alpha virt. eigenvalues --    1.05656   1.06626   1.07475   1.08541   1.09042
 Alpha virt. eigenvalues --    1.09966   1.10367   1.11350   1.11618   1.12310
 Alpha virt. eigenvalues --    1.13871   1.16241   1.16600   1.19596   1.23233
 Alpha virt. eigenvalues --    1.28940   1.45205   1.53073   1.56155   1.56701
 Alpha virt. eigenvalues --    1.60276   1.64144   1.65531   1.72383   1.73821
 Alpha virt. eigenvalues --    1.74185   1.77670   1.83558   1.85764   1.96122
 Alpha virt. eigenvalues --    1.99117   1.99173   2.14348   2.17484   2.27016
 Alpha virt. eigenvalues --    2.35034   2.85161   3.08792   3.31396   3.41137
          Condensed to atoms (all electrons):
              1          2          3          4          5          6
     1  C    5.282667   0.289697   0.249007   0.249189   0.197616  -0.050340
     2  C    0.289697   5.353807  -0.081792  -0.082166  -0.039154   0.003871
     3  C    0.249007  -0.081792   5.475391  -0.084882  -0.036258  -0.007979
     4  C    0.249189  -0.082166  -0.084882   5.475650  -0.036302  -0.007823
     5  O    0.197616  -0.039154  -0.036258  -0.036302   8.332358   0.227729
     6  C   -0.050340   0.003871  -0.007979  -0.007823   0.227729   4.285046
     7  O    0.001437   0.000064  -0.009810  -0.009708  -0.045586   0.472425
     8  N    0.002831  -0.000045  -0.000294  -0.000285  -0.079296   0.200141
     9  C   -0.000069   0.000001   0.000003   0.000003   0.001480  -0.047644
    10  C    0.000001   0.000000   0.000000   0.000000  -0.000031   0.006181
    11  C   -0.000004   0.000000   0.000000   0.000000   0.000292   0.002837
    12  C   -0.000117  -0.000049   0.000031   0.000024   0.010527  -0.030677
    13  O    0.000000   0.000000   0.000000   0.000000   0.000000  -0.000096
    14  H    0.000000   0.000000   0.000000   0.000000  -0.000001   0.000001
    15  H   -0.044489   0.350444   0.001225   0.001216   0.001908  -0.000039
    16  H   -0.038424   0.360076   0.004559  -0.003571   0.002018  -0.000006
    17  H   -0.038460   0.360026  -0.003603   0.004570   0.002004  -0.000005
    18  H   -0.035758  -0.000445   0.340112   0.000873   0.001578   0.000336
    19  H   -0.040286  -0.003214   0.358039   0.004360   0.001063   0.000474
    20  H   -0.036511   0.003584   0.342795  -0.004087  -0.003634   0.001912
    21  H   -0.035766  -0.000484   0.000912   0.339750   0.001571   0.000336
    22  H   -0.036489   0.003584  -0.004081   0.342855  -0.003552   0.001945
    23  H   -0.040228  -0.003159   0.004361   0.357885   0.001080   0.000457
    24  H    0.000001   0.000000  -0.000001   0.000000  -0.000006  -0.001217
    25  H    0.000001   0.000000   0.000001  -0.000001   0.000063   0.000670
    26  H    0.000000   0.000000   0.000000   0.000000   0.000000  -0.000097
    27  H    0.000000   0.000000   0.000000   0.000000   0.000000  -0.000034
    28  H    0.000000   0.000000   0.000000   0.000000   0.000000  -0.000046
    29  H   -0.000038   0.000020  -0.000014   0.000009   0.003540  -0.001478
    30  H   -0.000005   0.000005   0.000004  -0.000010   0.001627  -0.002799
              7          8          9         10         11         12
     1  C    0.001437   0.002831  -0.000069   0.000001  -0.000004  -0.000117
     2  C    0.000064  -0.000045   0.000001   0.000000   0.000000  -0.000049
     3  C   -0.009810  -0.000294   0.000003   0.000000   0.000000   0.000031
     4  C   -0.009708  -0.000285   0.000003   0.000000   0.000000   0.000024
     5  O   -0.045586  -0.079296   0.001480  -0.000031   0.000292   0.010527
     6  C    0.472425   0.200141  -0.047644   0.006181   0.002837  -0.030677
     7  O    8.140554  -0.069016   0.001503   0.000152  -0.000025   0.001191
     8  N   -0.069016   7.404883   0.242483  -0.058836  -0.050599   0.239815
     9  C    0.001503   0.242483   5.211051   0.253066  -0.093830  -0.085906
    10  C    0.000152  -0.058836   0.253066   5.507953   0.226265  -0.087893
    11  C   -0.000025  -0.050599  -0.093830   0.226265   5.348858   0.175480
    12  C    0.001191   0.239815  -0.085906  -0.087893   0.175480   5.320841
    13  O    0.000000  -0.001046   0.008456  -0.057985   0.238925  -0.039342
    14  H    0.000000  -0.000085  -0.000212   0.007092  -0.046839  -0.003211
    15  H    0.000002   0.000000   0.000000   0.000000   0.000000   0.000001
    16  H    0.000001  -0.000006   0.000000   0.000000   0.000000   0.000024
    17  H    0.000001  -0.000006   0.000000   0.000000   0.000000   0.000007
    18  H    0.000084   0.000001   0.000000   0.000000   0.000000   0.000000
    19  H    0.000035  -0.000007   0.000000   0.000000   0.000000  -0.000001
    20  H    0.024087   0.000139   0.000004   0.000000   0.000000  -0.000010
    21  H    0.000088   0.000001   0.000000   0.000000   0.000000   0.000000
    22  H    0.023977   0.000140   0.000003   0.000000   0.000000  -0.000011
    23  H    0.000032  -0.000009   0.000000   0.000000   0.000000   0.000003
    24  H    0.000323  -0.041419   0.365613  -0.049408  -0.003860   0.003266
    25  H    0.006342  -0.037905   0.366596  -0.029240   0.004404   0.002341
    26  H    0.000002   0.001396  -0.037811   0.350161  -0.042184   0.004125
    27  H    0.000000   0.002367  -0.033301   0.366246  -0.034018   0.005065
    28  H    0.000000   0.002088   0.005590  -0.046760   0.359823  -0.059130
    29  H    0.000014  -0.037766   0.002301   0.004523  -0.035028   0.361936
    30  H    0.000012  -0.041136   0.004671  -0.001341  -0.028454   0.327769
             13         14         15         16         17         18
     1  C    0.000000   0.000000  -0.044489  -0.038424  -0.038460  -0.035758
     2  C    0.000000   0.000000   0.350444   0.360076   0.360026  -0.000445
     3  C    0.000000   0.000000   0.001225   0.004559  -0.003603   0.340112
     4  C    0.000000   0.000000   0.001216  -0.003571   0.004570   0.000873
     5  O    0.000000  -0.000001   0.001908   0.002018   0.002004   0.001578
     6  C   -0.000096   0.000001  -0.000039  -0.000006  -0.000005   0.000336
     7  O    0.000000   0.000000   0.000002   0.000001   0.000001   0.000084
     8  N   -0.001046  -0.000085   0.000000  -0.000006  -0.000006   0.000001
     9  C    0.008456  -0.000212   0.000000   0.000000   0.000000   0.000000
    10  C   -0.057985   0.007092   0.000000   0.000000   0.000000   0.000000
    11  C    0.238925  -0.046839   0.000000   0.000000   0.000000   0.000000
    12  C   -0.039342  -0.003211   0.000001   0.000024   0.000007   0.000000
    13  O    8.171663   0.242676   0.000000   0.000000   0.000000   0.000000
    14  H    0.242676   0.464083   0.000000   0.000000   0.000000   0.000000
    15  H    0.000000   0.000000   0.549323  -0.023962  -0.024011   0.001644
    16  H    0.000000   0.000000  -0.023962   0.526643  -0.026135  -0.000084
    17  H    0.000000   0.000000  -0.024011  -0.026135   0.527714   0.000160
    18  H    0.000000   0.000000   0.001644  -0.000084   0.000160   0.554925
    19  H    0.000000   0.000000   0.000126  -0.000049   0.003796  -0.024797
    20  H    0.000000   0.000000   0.000010  -0.000085  -0.000046  -0.020661
    21  H    0.000000   0.000000   0.001684   0.000164  -0.000083   0.001154
    22  H    0.000000   0.000000   0.000012  -0.000046  -0.000085   0.000217
    23  H    0.000000   0.000000   0.000126   0.003755  -0.000051  -0.000070
    24  H    0.007734  -0.000343   0.000000   0.000000   0.000000   0.000000
    25  H    0.000124  -0.000001   0.000000   0.000000   0.000000   0.000000
    26  H    0.001795  -0.000180   0.000000   0.000000   0.000000   0.000000
    27  H    0.002384  -0.000107   0.000000   0.000000   0.000000   0.000000
    28  H   -0.032379  -0.001559   0.000000   0.000000   0.000000   0.000000
    29  H   -0.001752   0.004389   0.000000  -0.000014   0.000093   0.000000
    30  H    0.001716  -0.000004   0.000000   0.000051  -0.000009   0.000000
             19         20         21         22         23         24
     1  C   -0.040286  -0.036511  -0.035766  -0.036489  -0.040228   0.000001
     2  C   -0.003214   0.003584  -0.000484   0.003584  -0.003159   0.000000
     3  C    0.358039   0.342795   0.000912  -0.004081   0.004361  -0.000001
     4  C    0.004360  -0.004087   0.339750   0.342855   0.357885   0.000000
     5  O    0.001063  -0.003634   0.001571  -0.003552   0.001080  -0.000006
     6  C    0.000474   0.001912   0.000336   0.001945   0.000457  -0.001217
     7  O    0.000035   0.024087   0.000088   0.023977   0.000032   0.000323
     8  N   -0.000007   0.000139   0.000001   0.000140  -0.000009  -0.041419
     9  C    0.000000   0.000004   0.000000   0.000003   0.000000   0.365613
    10  C    0.000000   0.000000   0.000000   0.000000   0.000000  -0.049408
    11  C    0.000000   0.000000   0.000000   0.000000   0.000000  -0.003860
    12  C   -0.000001  -0.000010   0.000000  -0.000011   0.000003   0.003266
    13  O    0.000000   0.000000   0.000000   0.000000   0.000000   0.007734
    14  H    0.000000   0.000000   0.000000   0.000000   0.000000  -0.000343
    15  H    0.000126   0.000010   0.001684   0.000012   0.000126   0.000000
    16  H   -0.000049  -0.000085   0.000164  -0.000046   0.003755   0.000000
    17  H    0.003796  -0.000046  -0.000083  -0.000085  -0.000051   0.000000
    18  H   -0.024797  -0.020661   0.001154   0.000217  -0.000070   0.000000
    19  H    0.536883  -0.023304  -0.000071   0.000011  -0.000099   0.000000
    20  H   -0.023304   0.482394   0.000215   0.002929   0.000009   0.000002
    21  H   -0.000071   0.000215   0.555177  -0.020598  -0.024770   0.000000
    22  H    0.000011   0.002929  -0.020598   0.483139  -0.023396  -0.000001
    23  H   -0.000099   0.000009  -0.024770  -0.023396   0.537126   0.000000
    24  H    0.000000   0.000002   0.000000  -0.000001   0.000000   0.520160
    25  H    0.000000  -0.000005   0.000000   0.000007   0.000000  -0.032503
    26  H    0.000000   0.000000   0.000000   0.000000   0.000000   0.003612
    27  H    0.000000   0.000000   0.000000   0.000000   0.000000  -0.000606
    28  H    0.000000   0.000000   0.000000   0.000000   0.000000   0.000051
    29  H    0.000017   0.000004   0.000000  -0.000001  -0.000001   0.000387
    30  H    0.000000  -0.000001   0.000000   0.000004   0.000012  -0.000225
             25         26         27         28         29         30
     1  C    0.000001   0.000000   0.000000   0.000000  -0.000038  -0.000005
     2  C    0.000000   0.000000   0.000000   0.000000   0.000020   0.000005
     3  C    0.000001   0.000000   0.000000   0.000000  -0.000014   0.000004
     4  C   -0.000001   0.000000   0.000000   0.000000   0.000009  -0.000010
     5  O    0.000063   0.000000   0.000000   0.000000   0.003540   0.001627
     6  C    0.000670  -0.000097  -0.000034  -0.000046  -0.001478  -0.002799
     7  O    0.006342   0.000002   0.000000   0.000000   0.000014   0.000012
     8  N   -0.037905   0.001396   0.002367   0.002088  -0.037766  -0.041136
     9  C    0.366596  -0.037811  -0.033301   0.005590   0.002301   0.004671
    10  C   -0.029240   0.350161   0.366246  -0.046760   0.004523  -0.001341
    11  C    0.004404  -0.042184  -0.034018   0.359823  -0.035028  -0.028454
    12  C    0.002341   0.004125   0.005065  -0.059130   0.361936   0.327769
    13  O    0.000124   0.001795   0.002384  -0.032379  -0.001752   0.001716
    14  H   -0.000001  -0.000180  -0.000107  -0.001559   0.004389  -0.000004
    15  H    0.000000   0.000000   0.000000   0.000000   0.000000   0.000000
    16  H    0.000000   0.000000   0.000000   0.000000  -0.000014   0.000051
    17  H    0.000000   0.000000   0.000000   0.000000   0.000093  -0.000009
    18  H    0.000000   0.000000   0.000000   0.000000   0.000000   0.000000
    19  H    0.000000   0.000000   0.000000   0.000000   0.000017   0.000000
    20  H   -0.000005   0.000000   0.000000   0.000000   0.000004  -0.000001
    21  H    0.000000   0.000000   0.000000   0.000000   0.000000   0.000000
    22  H    0.000007   0.000000   0.000000   0.000000  -0.000001   0.000004
    23  H    0.000000   0.000000   0.000000   0.000000  -0.000001   0.000012
    24  H   -0.032503   0.003612  -0.000606   0.000051   0.000387  -0.000225
    25  H    0.503342  -0.003438  -0.000069  -0.000002  -0.000117   0.000160
    26  H   -0.003438   0.543878  -0.020495  -0.000043   0.000006   0.000231
    27  H   -0.000069  -0.020495   0.494769  -0.001409  -0.000058  -0.000190
    28  H   -0.000002  -0.000043  -0.001409   0.587021   0.000324   0.003362
    29  H   -0.000117   0.000006  -0.000058   0.000324   0.529793  -0.037356
    30  H    0.000160   0.000231  -0.000190   0.003362  -0.037356   0.566753
 Mulliken charges:
              1
     1  C    0.124538
     2  C   -0.514672
     3  C   -0.547727
     4  C   -0.547549
     5  O   -0.542635
     6  C    0.945917
     7  O   -0.538181
     8  N   -0.678532
     9  C   -0.164052
    10  C   -0.390147
    11  C   -0.022045
    12  C   -0.146101
    13  O   -0.542874
    14  H    0.334301
    15  H    0.184780
    16  H    0.195093
    17  H    0.194123
    18  H    0.180730
    19  H    0.187025
    20  H    0.230259
    21  H    0.180718
    22  H    0.229437
    23  H    0.186938
    24  H    0.228438
    25  H    0.219231
    26  H    0.199041
    27  H    0.219457
    28  H    0.183069
    29  H    0.206268
    30  H    0.205152
 Sum of Mulliken charges =   0.00000
 Mulliken charges with hydrogens summed into heavy atoms:
              1
     1  C    0.124538
     2  C    0.059325
     3  C    0.050287
     4  C    0.049543
     5  O   -0.542635
     6  C    0.945917
     7  O   -0.538181
     8  N   -0.678532
     9  C    0.283618
    10  C    0.028351
    11  C    0.161024
    12  C    0.265319
    13  O   -0.208573
 Sum of Mulliken charges with hydrogens summed into heavy atoms =   0.00000
 APT charges:
              1
     1  C    0.647495
     2  C   -0.027198
     3  C   -0.107277
     4  C   -0.107082
     5  O   -0.961512
     6  C    1.439298
     7  O   -0.787948
     8  N   -0.869365
     9  C    0.330547
    10  C    0.023732
    11  C    0.462294
    12  C    0.270700
    13  O   -0.516597
    14  H    0.208969
    15  H   -0.001993
    16  H    0.007225
    17  H    0.006601
    18  H   -0.001471
    19  H    0.000212
    20  H    0.081291
    21  H   -0.001768
    22  H    0.080750
    23  H    0.000144
    24  H   -0.034122
    25  H    0.009753
    26  H   -0.007934
    27  H    0.014296
    28  H   -0.087672
    29  H   -0.029711
    30  H   -0.041657
 Sum of APT charges =   0.00000
 APT charges with hydrogens summed into heavy atoms:
              1
     1  C    0.647495
     2  C   -0.015366
     3  C   -0.027246
     4  C   -0.027955
     5  O   -0.961512
     6  C    1.439298
     7  O   -0.787948
     8  N   -0.869365
     9  C    0.306179
    10  C    0.030094
    11  C    0.374622
    12  C    0.199331
    13  O   -0.307628
 Sum of APT charges with hydrogens summed into heavy atoms =   0.00000
 Electronic spatial extent (au):  <R**2>=           3106.4292
 Charge=              0.0000 electrons
 Dipole moment (field-independent basis, Debye):
    X=             -0.7145    Y=              3.0815    Z=             -1.2123  Tot=              3.3876
 Quadrupole moment (field-independent basis, Debye-Ang):
   XX=            -75.1446   YY=            -78.4797   ZZ=            -78.1948
   XY=             -0.3699   XZ=              3.0366   YZ=              2.7731
 Traceless Quadrupole moment (field-independent basis, Debye-Ang):
   XX=              2.1285   YY=             -1.2066   ZZ=             -0.9218
   XY=             -0.3699   XZ=              3.0366   YZ=              2.7731
 Octapole moment (field-independent basis, Debye-Ang**2):
  XXX=             22.5702  YYY=             19.4090  ZZZ=              5.2412  XYY=            -26.6583
  XXY=              5.8104  XXZ=            -11.2131  XZZ=             -5.3507  YZZ=              4.6352
  YYZ=              4.9569  XYZ=             -2.4546
 Hexadecapole moment (field-independent basis, Debye-Ang**3):
 XXXX=          -3098.5402 YYYY=           -614.8767 ZZZZ=           -344.1791 XXXY=            -15.2073
 XXXZ=             40.0165 YYYX=            -38.4263 YYYZ=             24.0263 ZZZX=            -20.1496
 ZZZY=              5.8495 XXYY=           -572.5090 XXZZ=           -579.9921 YYZZ=           -150.0687
 XXYZ=              8.0868 YYXZ=            -23.4645 ZZXY=            -15.1550
 N-N= 8.797727162661D+02 E-N=-3.229277623489D+03  KE= 6.248562572470D+02
  Exact polarizability: 126.777   0.531  97.402   1.328  -0.515  85.939
 Approx polarizability: 149.337  -4.063 146.560   0.264  -5.861 120.119
 Calculating spin-rotation constants.
 Leave Link  601 at Wed Oct 19 22:48:15 2011, MaxMem=  128000000 cpu:      32.0
 (Enter /home/foresman/gdv/l701.exe)
 Compute integral second derivatives.
 ... and contract with generalized density number  0.
 Leave Link  701 at Wed Oct 19 22:48:15 2011, MaxMem=  128000000 cpu:       1.3
 (Enter /home/foresman/gdv/l702.exe)
 L702 exits ... SP integral derivatives will be done elsewhere.
 Leave Link  702 at Wed Oct 19 22:48:15 2011, MaxMem=  128000000 cpu:       0.3
 (Enter /home/foresman/gdv/l703.exe)
 Compute integral second derivatives, UseDBF=F ICtDFT=           0.
 Integral derivatives from FoFJK, PRISM(SPDF).
 Calling FoFJK, ICntrl=    100127 FMM=F ISym2X=0 I1Cent= 0 IOpClX= 0 NMat=1 NMatS=1 NMatT=0.
 FoFJK:  IHMeth= 1 ICntrl=  100127 DoSepK=F KAlg= 0 I1Cent=   0 FoldK=F
 IRaf=       0 NMat=   1 IRICut=       1 DoRegI=T DoRafI=F ISym2E= 0.
 FoFCou: FMM=F IPFlag=           0 FMFlag=      100000 FMFlg1=         800
         NFxFlg=           0 DoJE=F BraDBF=F KetDBF=F FulRan=T
         wScrn=  0.000000 ICntrl=  100127 IOpCl=  0 I1Cent=           0 NGrid=           0
         NMat0=    1 NMatS0=      1 NMatT0=    0 NMatD0=    1 NMtDS0=    0 NMtDT0=    0
 Symmetry not used in FoFCou.
 Leave Link  703 at Wed Oct 19 22:48:49 2011, MaxMem=  128000000 cpu:     273.5
 (Enter /home/foresman/gdv/l716.exe)
 Dipole        =-2.81089793D-01 1.21235049D+00-4.76952628D-01
 Polarizability= 1.26776841D+02 5.31362356D-01 9.74023419D+01
                 1.32803252D+00-5.15302609D-01 8.59386404D+01
 AAT           = 8.01559644D-03-7.16497954D-02-1.21850931D-01
                 2.13308155D-02-2.27982009D-03 3.63435432D-01
                 1.05118593D-01-3.46146857D-01-2.91203367D-03
                -3.65985602D-03 4.02570532D-02 1.66722295D-01
                -1.86780036D-02-3.53353382D-02-1.69671990D-01
                -1.05771723D-01 2.24087300D-02 4.16688395D-02
                 6.19637620D-02-1.96153294D-01-1.08968613D-01
                 1.67177452D-01-1.15623598D-01-1.56216369D-01
                -4.55561613D-03 2.37179397D-01 6.37850155D-02
                -5.35478233D-02 1.23140156D-01-1.78482293D-01
                -1.39885071D-01 1.07712023D-01-2.60243284D-01
                 6.33274020D-02 1.61661001D-01-7.30230210D-02
                 8.88373629D-03 1.37715120D-01 2.76060360D-01
                -1.36241475D-01 7.48527970D-02-2.74620013D-01
                -5.49403780D-01 3.62582548D-01-5.40458781D-02
                -3.26706766D-02 7.24779011D-02 9.31487004D-01
                 1.29270333D-03-9.38245836D-02-2.55671383D-01
                -2.40717551D-01-6.51675806D-02 9.02922395D-02
                 1.66266572D-02-2.19375697D-01-1.13754557D+00
                 2.12224405D-01 9.08738725D-02 9.94371119D-02
                 1.05892646D+00 2.85175231D-01-1.16002885D-01
                 2.46681469D-02 5.31946744D-02-5.04802325D-01
                -3.56433766D-02 6.55301418D-02 4.13260975D-01
                 1.21680649D-01-4.53904325D-01-6.42757311D-02
                 1.64330304D-02-1.29164727D-01 1.03468513D-01
                 6.03737850D-02-2.06015203D-02-1.13252559D-01
                -4.42500780D-02 1.66039749D-01 1.91196291D-02
                -2.30211752D-02 5.52532453D-02 4.71800670D-02
                -1.59846840D-01-2.58542101D-02 1.86485557D-01
                 1.16473761D-01 2.99520247D-02-5.23895609D-02
                -4.64235660D-02-1.09426759D-01-3.57218102D-02
                -7.12709931D-02 1.35852312D-01-3.80048322D-01
                 1.39822587D-01 9.34876963D-01-7.57379472D-02
                 1.25298822D-02 1.59197672D-01 8.97458570D-02
                -4.44471075D-02-3.42954504D-02-3.21771298D-01
                -8.92206925D-02 2.66605077D-01 1.07155197D-01
                -2.37384242D-02-3.45759728D-01 6.95122439D-02
                 3.12863663D-01 2.28314832D-02 4.14342149D-01
                -4.79987068D-01-1.31626528D+00 5.08032566D-02
                 4.88212159D-02 1.68928621D-01-1.01292543D-01
                -4.32575402D-02-2.68095807D-01 1.22107108D-01
                 3.58021273D-01 3.60900578D-01 7.12154797D-02
                -1.11284640D-02 5.09381796D-02 1.37084811D-01
                 5.30067818D-03-5.27423625D-03 2.43261670D-01
                 6.43525439D-02-2.63780185D-01 1.52970626D-02
                -5.84519259D-02-6.34839082D-02-5.24222073D-02
                 1.89586062D-01-6.85152944D-02-9.93664262D-03
                -9.46453852D-02 2.30659968D-01 1.72886581D-01
                 7.16786812D-02 1.71755987D-02-4.14457208D-02
                -1.98366606D-01 1.02443000D-01-1.69727191D-01
                 1.61221154D-02 9.26168241D-02-2.19456719D-01
                -4.95978694D-03-1.08544144D-01-1.41168288D-02
                -5.53366639D-02 6.92668873D-03 2.65360232D-01
                -5.16090141D-03-2.30898481D-01-8.39343173D-04
                -6.33071509D-02 3.60429885D-02-2.48891566D-02
                -3.61828253D-02 2.15898133D-01-1.01493186D-01
                 1.94846919D-01 1.60231569D-01-1.01208959D-01
                -5.24053720D-02 8.14548341D-02 2.22814481D-01
                 1.38084996D-02-8.43408504D-02-9.90180743D-02
                -2.30935988D-01 1.03293113D-02 1.63457777D-01
                 1.03582130D-02 1.27175329D-01-7.12013959D-02
                 2.86732682D-02 1.22128460D-02 2.62464192D-01
                -2.17524441D-02-2.27153556D-01-2.30782622D-02
                 4.52206972D-02 1.64976980D-02 2.57479724D-01
                -9.89327613D-02 5.59146186D-03-1.88396464D-01
                -1.85386547D-01-6.74002888D-02-7.36298408D-02
                 5.05531209D-02-6.96379584D-02-1.67958660D-03
                 1.24385002D-01-1.28857820D-01 2.49165704D-02
                 1.58436794D-01 2.77444944D-01 2.84690249D-02
                 2.30995066D-02 1.63072711D-01 3.21747056D-02
                -1.86645140D-01-6.05654467D-02-1.60987808D-01
                 1.64897966D-01-8.42547653D-02-1.86856037D-03
                -5.99729437D-02-5.03338099D-02 1.19299075D-01
                 1.21534015D-01-1.65482846D-02 1.12118067D-01
                -9.90704038D-02 3.43346091D-04 1.21519666D-01
                 3.06930246D-03-1.01506197D-01-1.01015533D-02
                 1.47004722D-01-1.27654387D-02-1.27131248D-02
                 2.48824847D-02-2.65187187D-01 3.45540492D-02
                -2.01337440D-02 1.37826666D-01 5.91329921D-02
                -7.15865566D-02 6.04016784D-02-2.36548846D-01
[...]
 0009,-0.00012171,0.00001368,-0.00006885,-0.00001412,0.00000260,0.00003
 926,0.00001170,0.00000352,0.00002404,0.00000383,-0.00006566,-0.0000545
 0,0.00007796,0.00004262,-0.00002054,0.00000879,0.00008196,0.00006139,-
 0.00008632,-0.00003430,-0.00004125,-0.00004312,0.00007339,0.00007130,0
 .00008041,0.00002733,0.00001112,0.00002260,-0.01319189,0.07587346,0.00
 011910,0.00019520,-0.00003745,-0.00001944,-0.00001718,0.00000213,-0.00
 002453,-0.00003243,-0.00000090,-0.00002908,-0.00004009,-0.00000070,-0.
 00013685,-0.00032718,-0.00032149,0.00177782,0.00081389,-0.00012227,-0.
 00081777,0.00025274,0.00028524,-0.00109834,-0.00547012,0.00672680,0.05
 439678,-0.05137767,-0.29089000,0.00198155,-0.00040091,-0.00772580,0.00
 040206,-0.00007547,-0.00096981,0.00005489,0.00010257,-0.00085786,-0.00
 208362,0.00023871,-0.00018811,-0.00015308,0.00003923,0.00011090,-0.000
 00122,-0.00001483,-0.00000074,-0.00000623,0.00001449,0.00000952,0.0000
 0716,0.00000584,0.00000206,-0.00001097,-0.00000401,0.00001407,0.000013
 60,-0.00001072,0.00000700,0.00001759,0.00001927,-0.00003483,-0.0000119
 9,-0.00002126,-0.00001354,0.00004232,0.00002712,0.00001847,-0.00000045
 ,0.00001409,0.00001748,-0.06162383,0.05877634,0.31157214,-0.00009580,-
 0.00012066,-0.00008433,0.00002126,0.00001861,0.00000759,0.00005341,0.0
 0002972,0.00000524,0.00002511,-0.00001439,-0.00000824,0.00000778,0.000
 35520,-0.00029834,0.00062992,-0.00053071,0.00020110,-0.00075014,-0.000
 50958,-0.00015161,-0.00248171,0.00185166,0.00086949,-0.18906232,0.0606
 0130,-0.12266332,-0.01729638,0.00933631,-0.01606674,-0.00413828,-0.001
 00889,0.00174498,-0.00051648,-0.00057126,-0.00095822,0.00065390,-0.000
 01672,0.00004543,0.00014469,-0.00001691,0.00004732,0.00000285,0.000015
 46,0.00000339,-0.00000762,-0.00000386,-0.00000318,0.00000078,-0.000013
 08,0.00000847,0.00000434,0.00002766,-0.00000831,-0.00001061,-0.0000003
 3,0.00000449,-0.00005293,-0.00002848,0.00002780,0.00000196,-0.00000420
 ,0.00000865,0.00000742,-0.00001505,-0.00002444,-0.00001588,0.00001626,
 0.00000887,0.00689027,-0.00338617,0.00544088,0.20594522,0.00002164,0.0
 0001579,-0.00020045,-0.00000583,-0.00001084,0.00000064,0.00006030,0.00
 001564,-0.00002421,-0.00003319,-0.00007799,-0.00001188,-0.00051259,-0.
 00035811,-0.00056676,0.00860649,0.00027090,0.00227920,-0.00366187,0.00
 283694,-0.00150236,0.02608247,-0.02201953,0.01714877,0.05414872,-0.068
 38703,0.04596014,-0.01013363,0.00610191,-0.01027461,-0.00299459,-0.002
 07922,0.00068637,-0.00141828,-0.00361630,0.00225367,-0.00011731,0.0002
 7777,0.00017597,-0.00005787,-0.00001242,-0.00002819,-0.00000423,-0.000
 00695,-0.00000037,-0.00000116,0.00000369,0.00000935,-0.00000031,0.0000
 1798,-0.00001073,-0.00001643,0.00001715,0.00000520,-0.00000014,0.00001
 366,-0.00001495,-0.00006550,-0.00000747,0.00004650,-0.00001708,0.00001
 343,-0.00003739,-0.00002888,-0.00002270,-0.00001261,0.00000960,-0.0000
 0959,-0.00000120,-0.00530971,0.00373928,-0.00346478,-0.06706552,0.0828
 7548,0.00000356,0.00005507,-0.00000605,0.00000046,0.00000425,-0.000004
 90,-0.00000937,0.00000967,-0.00000816,-0.00002122,-0.00000616,-0.00001
 125,0.00044279,-0.00016186,-0.00017552,-0.00250993,0.00048153,0.000930
 65,0.00113840,-0.00160179,-0.00075983,0.00507758,-0.00049030,0.0055986
 9,-0.12362830,0.05033023,-0.16206131,0.00886075,-0.00445709,0.00566471
 ,0.00286451,-0.00020232,-0.00079900,0.00133725,-0.00097172,-0.00057692
 ,-0.00100637,0.00012094,0.00046761,-0.00004350,0.00016479,0.00006347,-
 0.00000215,-0.00000040,0.00000130,0.00000300,-0.00000209,0.00000097,0.
 00000074,-0.00000022,-0.00000084,0.00000202,-0.00000205,0.00000054,0.0
 0000232,-0.00000668,0.00000012,-0.00000937,-0.00000255,-0.00000310,0.0
 0000181,-0.00000070,-0.00000602,0.00000446,-0.00000481,0.00002693,0.00
 001079,-0.00001218,-0.00000693,-0.02455845,0.00956666,-0.01931320,0.13
 204441,-0.05188933,0.16956118,0.00005496,0.00003432,0.00005225,-0.0000
 1454,-0.00001017,-0.00000839,-0.00001224,-0.00000498,-0.00000967,-0.00
 001245,-0.00000553,-0.00000418,-0.00001052,-0.00021451,-0.00006527,-0.
 00006376,0.00010850,0.00015342,0.00006525,-0.00010007,-0.00014934,0.00
 062726,0.00135389,-0.00146628,-0.00803869,-0.00065118,0.03623106,-0.05
 134670,-0.00073161,0.03174982,0.00273577,-0.00181699,-0.02267547,0.000
 19152,-0.00042342,0.00045014,-0.00226382,0.00442808,-0.00309114,-0.000
 07044,0.00025744,-0.00173179,0.00000253,-0.00000641,-0.00000041,0.0000
 0513,-0.00000180,-0.00000136,-0.00000288,0.00000469,-0.00000206,-0.000
 00321,-0.00000731,-0.00000046,-0.00000171,0.00000843,-0.00000645,0.000
 01034,0.00000635,0.00000675,0.00000119,0.00000166,-0.00000765,-0.00000
 183,0.00000114,0.00002106,0.00001041,-0.00001253,-0.00000998,-0.005170
 00,-0.00329939,0.00097736,0.00148387,0.00101381,-0.00033158,0.06152161
 ,-0.00005598,-0.00010124,0.00000350,0.00000240,0.00000611,0.00000431,0
 .00001256,0.00001307,-0.00000066,0.00001007,0.00001753,0.00001148,0.00
 001498,0.00015990,0.00000024,-0.00054120,-0.00027070,-0.00006948,0.000
 23913,-0.00010531,0.00001226,0.00015351,0.00117372,-0.00056680,-0.0007
 1980,-0.00116667,0.00976117,-0.00130478,-0.05440096,0.00438833,-0.0045
 9460,-0.00003677,0.02231248,0.00005915,0.00031538,0.00024946,0.0027477
 0,-0.00350280,0.00203879,0.00005526,0.00062375,0.00139826,0.00000412,0
 .00000700,0.00000011,0.00000247,-0.00000916,-0.00000523,-0.00000178,-0
 .00000429,-0.00000060,0.00000565,0.00000622,-0.00000330,-0.00000409,0.
 00000033,-0.00000144,-0.00000866,-0.00000909,0.00000737,0.00000847,0.0
 0001051,0.00000153,-0.00001587,-0.00000815,-0.00000755,-0.00000066,-0.
 00001035,-0.00001243,-0.00117086,-0.00005932,0.00054341,0.00051345,0.0
 0055343,-0.00037048,0.00023845,0.05271168,-0.00005317,-0.00006085,-0.0
 0003624,0.00001402,0.00001102,-0.00000033,0.00000988,0.00001190,0.0000
 0575,0.00001783,0.00001044,0.00000102,0.00004049,0.00023121,0.00009638
 ,-0.00008148,-0.00000773,-0.00032594,0.00003411,0.00006480,0.00008276,
 -0.00019278,0.00043029,0.00103973,0.00074262,-0.00123234,-0.00636331,0
 .03125686,0.00630852,-0.30940227,0.00321909,-0.00277003,-0.01346253,0.
 00023465,-0.00031511,-0.00035186,-0.00201478,0.00297566,-0.00067223,-0
 .00008928,-0.00003193,-0.00057455,-0.00000152,0.00000731,0.00000150,-0
 .00000477,0.00000016,0.00000273,0.00000221,-0.00000617,0.00000264,0.00
 000556,0.00000778,-0.00000020,0.00000039,-0.00000827,0.00000663,-0.000
 01190,-0.00000644,-0.00000150,0.00000158,0.00000143,0.00000830,-0.0000
 0360,-0.00000545,-0.00001521,-0.00000756,0.00000655,0.00000865,0.00084
 161,0.00063480,0.00108888,0.00027971,-0.00011720,0.00111834,-0.0346033
 3,-0.00800969,0.33791824,0.00025072,0.00015728,-0.00002413,-0.00006372
 ,-0.00004942,-0.00001554,-0.00002204,-0.00002470,-0.00001354,-0.000038
 97,-0.00004420,-0.00000241,-0.00023470,-0.00092228,-0.00020815,0.00136
 379,-0.00036667,0.00076843,-0.00023945,-0.00003671,-0.00005662,-0.0061
 5017,-0.00358208,0.00090485,-0.00244259,-0.02697190,-0.01288609,-0.058
 44241,-0.04529512,-0.01955679,0.00379741,0.02338028,0.00930309,-0.0032
 7335,0.00288838,-0.00282636,0.00040488,-0.00223579,0.00163450,-0.00005
 882,-0.00028879,0.00048416,0.00001755,-0.00002709,0.00000037,-0.000000
 20,0.00000477,-0.00000717,0.00000060,0.00000005,0.00001048,-0.00001008
 ,-0.00001373,0.00000842,0.00000556,-0.00000010,0.00000461,0.00003035,0
 .00002674,-0.00001662,-0.00001197,-0.00001140,-0.00001894,0.00002734,0
 .00001753,0.00002613,0.00000580,0.00000246,0.00000041,0.00156245,0.000
 53345,0.00033612,-0.00053602,0.00016715,-0.00028359,-0.00012270,0.0042
 2654,0.00127289,0.06304184,0.00016123,0.00027357,0.00001109,-0.0000297
 3,-0.00002727,-0.00000489,-0.00004056,-0.00004002,-0.00000948,-0.00005
 348,-0.00005660,-0.00000988,-0.00025167,-0.00062007,-0.00013232,0.0008
 2902,0.00037940,0.00039972,-0.00043587,0.00000303,-0.00008753,-0.00106
 108,-0.00101023,0.00027357,0.00118371,-0.00661535,-0.00354352,-0.04532
 703,-0.26763525,-0.09868916,-0.00487926,-0.02245843,-0.00907202,0.0017
 7569,-0.00171654,0.00213532,-0.00040619,0.00216342,-0.00158361,-0.0003
 2899,0.00107819,-0.00026387,-0.00000344,-0.00002186,-0.00000379,0.0000
 0157,0.00001400,0.00000755,0.00000378,0.00001596,-0.00000318,-0.000016
 84,-0.00001921,0.00000990,0.00001147,0.00000424,-0.00000278,0.00002936
 ,0.00002396,-0.00001811,-0.00001590,-0.00001641,-0.00002209,0.00002880
 ,0.00001813,0.00002853,0.00000937,0.00000482,0.00000743,-0.00020767,0.
 00042348,0.00042734,-0.00042949,-0.00023469,0.00011679,0.00088512,0.00
 356368,0.00131069,0.04848465,0.29294722,-0.00002103,0.00001230,-0.0000
 0712,0.00001901,0.00001158,0.00000068,0.00000621,0.00000884,0.00001012
 ,0.00000954,0.00000901,-0.00000912,0.00018951,0.00026039,0.00009882,-0
 .00016783,0.00056656,-0.00008385,-0.00001567,-0.00003484,0.00001837,0.
 00130547,0.00205716,0.00070442,0.00116611,0.00687686,0.00129337,-0.019
 11082,-0.10299695,-0.09400988,0.00198764,0.01256786,0.00350094,-0.0005
 2870,0.00245810,-0.00165866,0.00016703,0.00035928,0.00087584,0.0001726
 9,-0.00045078,0.00011726,-0.00000461,0.00000693,0.00000176,-0.00000219
 ,0.00000167,0.00000069,-0.00000077,-0.00000213,0.00000139,0.00000435,0
 .00000038,-0.00000506,-0.00000220,0.00000116,0.00000065,0.00000332,0.0
 0000220,-0.00000075,0.00000162,-0.00000357,0.00000891,0.00000667,0.000
 00147,-0.00000004,-0.00000285,0.00000677,0.00000632,-0.00007362,0.0003
 2952,0.00050126,-0.00002184,-0.00015779,0.00003398,-0.00606040,-0.0309
 9320,-0.01145430,0.02057194,0.10882368,0.09967824,0.00021535,0.0003924
 4,0.00008900,-0.00004429,-0.00003698,-0.00000171,-0.00006618,-0.000067
 48,-0.00001168,-0.00006918,-0.00006119,-0.00001287,-0.00008248,-0.0008
 8901,-0.00016003,0.00057396,0.00147212,0.00024382,-0.00074805,-0.00044
 959,-0.00009975,-0.00116558,-0.00172234,-0.00056364,-0.00135436,0.0020
 7764,-0.00191713,-0.01498191,-0.00334324,0.00507059,-0.27651577,-0.011
 42056,0.07572131,-0.01091615,0.00273237,0.00342639,0.00754043,0.001658
 51,0.00305467,0.00062211,-0.00031160,0.00050981,0.00000234,-0.00003000
 ,-0.00000534,0.00000305,0.00001484,-0.00000823,-0.00000185,0.00001833,
 0.00000662,-0.00002383,-0.00003431,0.00001096,0.00001273,0.00001327,-0
 .00000429,0.00006624,0.00004246,-0.00003451,-0.00001844,-0.00002635,-0
 .00002551,0.00005276,0.00003283,0.00005771,0.00001494,0.00000622,-0.00
 000046,0.00002590,-0.00003786,0.00010180,-0.00060969,-0.00029733,0.000
 25609,0.00021740,-0.00001062,-0.00070306,0.00034282,0.00044004,0.00020
 702,0.29696074,0.00008468,0.00021575,0.00002838,-0.00001856,-0.0000139
 3,-0.00000054,-0.00003313,-0.00003460,-0.00000779,-0.00003703,-0.00003
 874,-0.00000690,-0.00012533,-0.00026475,-0.00006335,-0.00007441,0.0015
 6421,0.00006502,-0.00098830,-0.00010416,-0.00011331,-0.00321894,-0.005
 53691,-0.00075101,0.00241594,-0.00447434,0.00183612,0.02354207,0.00254
 192,-0.00719284,-0.01096646,-0.05422310,0.00558226,-0.02760320,0.00059
 437,0.00782808,0.00641566,0.00278573,-0.00561192,-0.00067367,-0.000081
 04,0.00026592,0.00000063,-0.00001360,-0.00000295,-0.00000017,0.0000091
 6,-0.00000164,-0.00000042,0.00001099,0.00000241,-0.00001295,-0.0000140
 2,0.00000842,0.00001029,0.00000125,-0.00000177,0.00003010,0.00002621,-
 0.00002653,-0.00001106,-0.00001001,-0.00001540,0.00002240,0.00001739,0
 .00003529,0.00000888,0.00000021,0.00000215,-0.00001614,0.00025283,-0.0
 0002819,0.00073573,0.00063213,-0.00049240,-0.00103026,0.00097327,-0.00
 007486,-0.00058556,0.00031443,-0.00054928,0.01115291,0.05419791,0.0000
 5957,0.00006257,-0.00000568,-0.00001447,-0.00000766,-0.00000437,-0.000
 02229,-0.00000534,-0.00000479,-0.00001782,-0.00000874,-0.00000107,0.00
 006259,-0.00020027,-0.00001035,-0.00030254,0.00058646,0.00010405,-0.00
 031641,-0.00031212,-0.00009571,-0.00230701,-0.00048929,0.00058412,-0.0
 0253661,0.00150837,-0.00127511,-0.01254337,-0.00149771,0.00473048,0.07
 558905,0.00642326,-0.07156935,-0.00444170,-0.00024777,0.00286981,0.030
 59815,-0.00472192,-0.02878384,0.00113788,0.00007285,0.00108953,0.00000
 168,-0.00000610,-0.00000022,-0.00000063,0.00000205,0.00000537,0.000005
 63,-0.00000191,-0.00000017,-0.00000007,-0.00000505,0.00000671,0.000006
 58,-0.00001053,0.00000626,0.00001042,0.00001135,-0.00001617,-0.0000014
 1,-0.00000772,-0.00000478,0.00001488,0.00000907,0.00001409,0.00000131,
 0.00000044,0.00000450,-0.00062371,0.00019290,0.00008092,-0.00060626,-0
 .00032695,0.00025076,0.00036990,-0.00050689,0.00070492,0.00033971,0.00
 020594,0.00000674,-0.08435262,-0.00082217,0.09071861,0.00011834,-0.000
 07401,0.00025105,-0.00007004,-0.00003314,-0.00008714,-0.00014845,-0.00
 003676,-0.00004078,0.00004523,0.00012875,-0.00000510,0.00100915,-0.002
 46030,0.00034405,0.00331099,0.00723738,-0.00070849,-0.00226606,-0.0006
 7474,0.00084008,-0.01875766,0.02479919,-0.02121416,-0.00267249,-0.0009
 6461,-0.00324061,-0.00225584,-0.00268055,-0.00139799,0.00377251,-0.012
 52195,0.01312423,-0.04679670,0.02022342,-0.02049494,0.00047441,0.00184
 361,0.00149052,0.00011895,0.00025073,-0.00064987,0.00002667,-0.0000131
 7,0.00002501,-0.00000372,0.00000036,0.00000701,0.00002398,-0.00006388,
 0.00004240,0.00002454,-0.00004203,0.00004302,0.00000940,-0.00004216,0.
 00005890,0.00011618,0.00009747,-0.00007647,0.00003144,-0.00003598,0.00
 003928,0.00007685,0.00005089,0.00006437,-0.00000350,0.00000543,0.00000
 322,-0.00000981,0.00002979,0.00014533,-0.00022519,0.00153080,0.0001494
 8,-0.00016571,0.00021522,-0.00011116,0.00086821,-0.00041370,0.00029565
 ,-0.00015522,0.00033954,-0.00012183,0.06078008,-0.00035002,-0.00030566
 ,0.00011261,0.00002448,0.00004565,-0.00002980,0.00001497,0.00000018,0.
 00001025,0.00009237,0.00008604,-0.00001295,-0.00062647,0.00027695,-0.0
 0053070,-0.00048227,-0.00091946,-0.00023275,0.00012357,0.00015196,0.00
 024447,0.00513050,-0.00487855,0.00228241,-0.00016827,0.00007991,0.0014
 0497,-0.00158235,-0.00332650,-0.00168620,0.00419840,-0.02030713,0.0189
 4523,0.02583215,-0.17275048,0.12938143,0.00143520,0.00450800,0.0009644
 0,-0.00165897,-0.00076375,-0.00203035,0.00001391,0.00002373,0.00001519
 ,-0.00000865,-0.00001293,-0.00002154,-0.00000955,-0.00002645,0.0000274
 0,0.00001060,0.00000900,-0.00001344,-0.00001391,0.00001938,-0.00000322
 ,-0.00002239,-0.00003025,0.00002924,0.00002307,0.00002100,0.00004451,-
 0.00002878,-0.00000948,-0.00002286,-0.00001039,-0.00000075,-0.00000708
 ,0.00010384,-0.00016209,-0.00010622,0.00019831,-0.00044025,-0.00015037
 ,-0.00011334,0.00010987,0.00013994,0.00075110,-0.00063133,0.00061317,-
 0.00060691,-0.00045372,-0.00056532,-0.03020229,0.19065392,0.00015290,-
 0.00004328,0.00005798,-0.00003501,-0.00000698,-0.00007595,0.00000458,-
 0.00001369,0.00001649,0.00006851,0.00004035,-0.00003241,0.00138526,-0.
 00119875,0.00011607,0.00089985,0.00352818,0.00084919,-0.00067307,-0.00
 050999,-0.00027160,-0.00464043,-0.00228280,0.00501513,0.00042917,-0.00
 109076,-0.00116571,-0.00006199,-0.00186076,-0.00048624,0.00126450,-0.0
 0830901,0.00277012,-0.02262256,0.12872853,-0.18064394,0.00054829,-0.00
 071269,0.00242479,-0.00043804,0.00032898,0.00037713,0.00006414,0.00000
 029,0.00002565,-0.00002311,-0.00001005,-0.00007821,-0.00002457,-0.0000
 8435,0.00011269,0.00001505,-0.00000880,-0.00000190,-0.00001530,-0.0000
 0598,0.00003743,0.00006269,0.00003807,-0.00003883,0.00000790,-0.000022
 52,0.00003479,0.00006613,0.00002601,0.00004682,-0.00000971,0.00002941,
 0.00001189,-0.00004416,-0.00006740,0.00000790,0.00008688,0.00010916,0.
 00000173,0.00007689,-0.00013975,0.00017353,0.00029027,-0.00017264,0.00
 037070,0.00011139,0.00058470,0.00007459,0.02556659,-0.13979208,0.19334
 586,0.00030226,0.00024712,-0.00005271,-0.00010099,-0.00006387,0.000047
 62,-0.00001428,0.00005062,0.00001829,-0.00017258,-0.00007011,-0.000000
 90,0.00142250,-0.00215920,-0.00076019,0.00349089,0.00722601,0.00342466
 ,-0.00251743,-0.00053518,-0.00157164,-0.02760431,0.01567223,0.02417939
 ,-0.00219916,-0.00263986,0.00205800,-0.00019995,0.00009436,0.00053533,
 0.00532066,-0.00298187,-0.01727503,-0.06345728,0.02242856,0.06513995,-
 0.00078817,-0.00516301,-0.00284836,0.00027587,-0.00014990,0.00077824,0
 .00004095,-0.00002226,-0.00002244,0.00002938,-0.00004901,-0.00006125,-
 0.00000681,0.00000308,0.00000664,0.00001609,-0.00004251,-0.00002205,0.
 00000518,0.00001121,-0.00000401,0.00012186,0.00008878,-0.00005246,0.00
 002530,-0.00004132,-0.00005824,0.00012509,0.00009451,0.00015491,0.0000
 2608,-0.00002861,-0.00006944,-0.00022965,0.00124221,0.00020301,-0.0000
 7374,0.00010046,0.00020341,0.00037397,-0.00008023,-0.00009511,-0.00007
 214,0.00005705,-0.00010125,0.00010220,0.00063678,0.00001138,0.00272345
 ,-0.00206792,-0.00251304,0.08303478,-0.00024492,-0.00040443,-0.0001923
 7,0.00002673,0.00002843,0.00006451,0.00010798,0.00009351,0.00006625,0.
 00004635,0.00004482,-0.00000482,0.00025395,0.00090002,0.00017218,-0.00
 121543,-0.00090294,-0.00003185,0.00034129,0.00002832,-0.00004253,0.007
 75116,-0.00206520,-0.00571233,0.00055096,-0.00031416,-0.00068665,0.000
 47952,0.00090685,0.00028108,0.00906462,-0.00559664,-0.02498257,0.02368
 380,-0.08397445,-0.07746635,-0.00165526,-0.00454704,-0.00244863,-0.000
 19740,-0.00028592,0.00032590,0.00002133,0.00003143,-0.00001229,-0.0000
 0512,-0.00003157,-0.00005457,-0.00001762,-0.00001165,0.00001673,0.0000
 3384,0.00003030,-0.00004476,-0.00001393,0.00000868,-0.00000583,-0.0000
 3092,-0.00002144,0.00001924,0.00001921,0.00001175,0.00003136,-0.000020
 86,-0.00002047,-0.00004267,-0.00002018,0.00001524,-0.00000877,0.000162
 58,-0.00040528,-0.00007918,0.00003562,-0.00010209,-0.00002443,0.000087
 60,-0.00056064,0.00049357,-0.00018484,-0.00012426,0.00021363,-0.000708
 62,0.00112516,0.00066819,-0.00649332,0.00903318,0.02291863,-0.03185814
 ,0.08711050,-0.00012801,-0.00003728,-0.00012942,0.00003604,0.00002347,
 -0.00007223,-0.00001845,0.00002555,-0.00002383,-0.00001641,-0.00000513
 ,-0.00000093,-0.00107515,0.00069518,0.00043333,-0.00016453,-0.00203898
 ,0.00029420,0.00015817,0.00048211,-0.00037806,0.00096945,0.00155545,0.
 01063140,-0.00059995,0.00038873,-0.00085976,0.00027234,0.00003311,-0.0
 0012506,0.00209240,0.00132830,-0.00682161,0.06556286,-0.07687425,-0.25
 735492,-0.00118560,-0.00247821,0.00020947,0.00071768,0.00012406,0.0007
 3788,-0.00004634,-0.00000220,0.00001829,0.00000096,0.00004892,0.000103
 00,0.00002387,0.00000321,-0.00003484,0.00000566,0.00001584,0.00001526,
 0.00000062,-0.00002998,0.00001490,-0.00005565,-0.00002031,0.00001856,-
 0.00001057,-0.00000123,-0.00000004,-0.00002971,-0.00001523,-0.00003845
 ,0.00000469,0.00000309,0.00004225,-0.00010996,-0.00009028,0.00003194,0
 .00006012,-0.00003320,0.00001206,0.00013656,-0.00004519,0.00040044,-0.
 00004042,-0.00013866,-0.00000167,-0.00096634,-0.00047589,0.00052012,0.
 00565835,-0.00901034,-0.02307568,-0.07125268,0.08656933,0.27543344\\0.
 00000294,0.00000323,-0.00000241,0.,0.00000038,0.00000081,-0.00000264,0
 .00000010,-0.00000654,0.00000545,-0.00000147,-0.00000405,0.00000295,-0
 .00000686,0.00000001,-0.00000691,0.00000874,-0.00000229,0.00000402,-0.
 00000151,-0.00000621,0.00000093,-0.00000607,-0.00000088,-0.00000076,0.
 00000401,-0.00000157,0.00000020,-0.00000076,0.00000461,-0.00000247,-0.
 00000075,0.00000833,-0.00000241,0.00000120,0.00000609,-0.00000526,0.00
 000082,0.00000487,-0.00000845,0.00000166,0.00000751,0.00000166,-0.0000
 0029,-0.00000032,0.00000400,-0.00000089,0.00000319,-0.00000165,0.00000
 013,0.00000292,-0.00000262,0.00000059,-0.00000712,-0.00000572,0.000001
 22,-0.00000382,-0.00000286,0.00000079,-0.00000780,0.00000560,-0.000000
 92,-0.00000699,0.00000512,-0.00000063,-0.00000786,0.00000787,-0.000001
 08,-0.00000280,-0.00000329,0.00000022,-0.00000176,0.00000164,-0.000000
 63,-0.00000354,0.00000434,-0.00000079,0.00000361,-0.00000098,0.0000006
 8,0.00000273,-0.00000024,-0.00000023,0.00000970,-0.00000312,-0.0000001
 8,0.00000569,0.00000267,-0.00000071,0.00000590\\\@
 The archive entry for this job was punched.


 THE DIFFERENCE BETWEEN A NOOSE AND A HALO IS ONLY 12 INCHES.
 Job cpu time:  0 days  0 hours 16 minutes 23.6 seconds.
 File lengths (MBytes):  RWF=    113 Int=      0 D2E=      0 Chk=      3 Scr=      1
 Normal termination of Gaussian DV at Wed Oct 19 22:48:49 2011.
