 Entering Gaussian System, Link 0=gdv
 Input=cdc.gjf
 Output=cdc.log
 Initial command:
 /home/foresman/gdv/l1.exe /tmp/Gau-24256.inp -scrdir=/tmp/
 Default is to use a total of   8 processors:
                                8 via shared-memory
                                1 via Linda
 Entering Link 1 = /home/foresman/gdv/l1.exe PID=     24257.
  
 Copyright (c) 1988,1990,1992,1993,1995,1998,2003,2009,2011,
            Gaussian, Inc.  All Rights Reserved.
  
 This is the private, development version of
 the Gaussian(R) DV system of programs. It is based on
 the Gaussian(R) 09 system (copyright 2009, Gaussian, Inc.),
 the Gaussian(R) 03 system (copyright 2003, Gaussian, Inc.),
 the Gaussian(R) 98 system (copyright 1998, Gaussian, Inc.),
 the Gaussian(R) 94 system (copyright 1995, Gaussian, Inc.),
 the Gaussian 92(TM) system (copyright 1992, Gaussian, Inc.),
 the Gaussian 90(TM) system (copyright 1990, Gaussian, Inc.),
 the Gaussian 88(TM) system (copyright 1988, Gaussian, Inc.),
 the Gaussian 86(TM) system (copyright 1986, Carnegie Mellon
 University), and the Gaussian 82(TM) system (copyright 1983,
 Carnegie Mellon University). Gaussian is a federally registered
 trademark of Gaussian, Inc.
  
 This software contains proprietary and confidential information,
 including trade secrets, belonging to Gaussian, Inc.
  
 This software is provided under written license and may be
 used, copied, transmitted, or stored only in accord with that
 written license.
  
 The following legend is applicable only to US Government
 contracts under FAR:
  
                    RESTRICTED RIGHTS LEGEND
  
 Use, reproduction and disclosure by the US Government is
 subject to restrictions as set forth in subparagraphs (a)
 and (c) of the Commercial Computer Software - Restricted
 Rights clause in FAR 52.227-19.
  
 Gaussian, Inc.
 340 Quinnipiac St., Bldg. 40, Wallingford CT 06492
  
  
 ---------------------------------------------------------------
 Warning -- This program may not be used in any manner that
 competes with the business of Gaussian, Inc. or will provide
 assistance to any competitor of Gaussian, Inc.  The licensee
 of this program is prohibited from giving any competitor of
 Gaussian, Inc. access to this program.  By using this program,
 the user acknowledges that Gaussian, Inc. is engaged in the
 business of creating and licensing software in the field of
 computational chemistry and represents and warrants to the
 licensee that it is not a competitor of Gaussian, Inc. and that
 it will not use this program in any manner prohibited above.
 ---------------------------------------------------------------
  

 Cite this work as:
 Gaussian Development Version, Revision H.13,
 M. J. Frisch, G. W. Trucks, H. B. Schlegel, G. E. Scuseria, 
 M. A. Robb, J. R. Cheeseman, G. Scalmani, V. Barone, B. Mennucci, 
 G. A. Petersson, H. Nakatsuji, M. Caricato, X. Li, H. P. Hratchian, 
 A. F. Izmaylov, J. Bloino, G. Zheng, J. L. Sonnenberg, W. Liang, 
 M. Hada, M. Ehara, K. Toyota, R. Fukuda, J. Hasegawa, M. Ishida, 
 T. Nakajima, Y. Honda, O. Kitao, H. Nakai, T. Vreven, 
 J. A. Montgomery, Jr., J. E. Peralta, F. Ogliaro, M. Bearpark, 
 J. J. Heyd, E. Brothers, K. N. Kudin, V. N. Staroverov, T. Keith, 
 R. Kobayashi, J. Normand, K. Raghavachari, A. Rendell, J. C. Burant, 
 S. S. Iyengar, J. Tomasi, M. Cossi, N. Rega, J. M. Millam, M. Klene, 
 J. E. Knox, J. B. Cross, V. Bakken, C. Adamo, J. Jaramillo, 
 R. Gomperts, R. E. Stratmann, O. Yazyev, A. J. Austin, R. Cammi, 
 C. Pomelli, J. W. Ochterski, R. L. Martin, K. Morokuma, 
 V. G. Zakrzewski, G. A. Voth, P. Salvador, J. J. Dannenberg, 
 S. Dapprich, P. V. Parandekar, N. J. Mayhall, A. D. Daniels, 
 O. Farkas, J. B. Foresman, J. V. Ortiz, J. Cioslowski, 
 and D. J. Fox, Gaussian, Inc., Wallingford CT, 2010.
 
 ******************************************
 Gaussian DV:  EM64L-GDVRevH.13 30-Sep-2011
                19-Oct-2011 
 ******************************************
 %chk=cdc
 %nprocshared=8
 Will use up to    8 processors via shared memory.
 Default route:  maxdisk=400GB
 ------------------------------------
 #p B3LYP/3-21G freq=vcd Geom=Connect
 ------------------------------------
 1/10=4,30=1,38=1,57=2/1,3;
 2/12=2,17=6,18=5,40=1/2;
 3/5=5,11=2,16=1,25=1,30=1,36=2,71=2,74=-5,140=1/1,2,3;
 4//1;
 5/5=2,38=5,98=1/2;
 8/6=4,10=90,11=11/1;
 10/15=4,46=1/2;
 11/6=1,8=1,9=11,15=111,16=1/1,2,10;
 10/6=1,46=1/2;
 6/7=2,8=2,9=2,10=2,18=1,28=1/1;
 7/8=1,10=1,25=1/1,2,3,16;
 1/10=4,30=1/3;
 99//99;
 Leave Link    1 at Wed Oct 19 22:48:49 2011, MaxMem=          0 cpu:       0.3
 (Enter /home/foresman/gdv/l101.exe)
 ----------------
 13 -21.477 0.000
 ----------------
 Charge =  0 Multiplicity = 1
 Symbolic Z-Matrix:
 C                    -0.29504  -3.0318   -0.21679 
 C                    -1.27426  -3.56764  -1.27339 
 C                     1.04837  -3.77006  -0.26624 
 C                    -0.90359  -3.05615   1.19389 
 O                     0.10325  -1.62822  -0.56621 
 C                    -0.87516  -0.64302  -0.61205 
 O                    -2.08826  -0.81168  -0.40944 
 N                    -0.29771   0.54222  -0.93106 
 C                    -1.08847   1.77942  -1.10004 
 C                    -0.18425   2.5862   -2.05653 
 C                     1.22668   2.24862  -1.51889 
 C                     1.144     0.74359  -1.19362 
 O                     1.43877   2.89241  -0.21962 
 H                     1.40964   3.87741  -0.36445 
 H                    -1.51028  -4.6152   -1.05851 
 H                    -2.18552  -2.96864  -1.25461 
 H                    -0.81727  -3.5038   -2.26661 
 H                     0.9025   -4.82823  -0.02701 
 H                     1.48278  -3.68281  -1.26668 
 H                     1.74067  -3.32824   0.45653 
 H                    -1.13584  -4.08821   1.47665 
 H                    -0.18741  -2.64362   1.91223 
 H                    -1.81302  -2.45398   1.20241 
 H                    -1.18544   2.30605  -0.14523 
 H                    -2.07397   1.53791  -1.49936 
 H                    -0.28886   2.21055  -3.07955 
 H                    -0.39152   3.66008  -2.0392 
 H                     2.02847   2.47449  -2.233 
 H                     1.75136   0.52899  -0.31234 
 H                     1.47536   0.12375  -2.03148 
 
 NAtoms=     30 NQM=        0 NQMF=       0 NMMI=     30 NMMIF=      0
                NMic=       0 NMicF=      0.
                    Isotopes and Nuclear Properties:
 (Nuclear quadrupole moments (NQMom) in fm**2, nuclear magnetic moments (NMagM)
  in nuclear magnetons)

  Atom         1           2           3           4           5           6           7           8           9          10
 IAtWgt=          12          12          12          12          16          12          16          14          12          12
 AtmWgt=  12.0000000  12.0000000  12.0000000  12.0000000  15.9949146  12.0000000  15.9949146  14.0030740  12.0000000  12.0000000
 NucSpn=           0           0           0           0           0           0           0           2           0           0
 AtZEff=   0.0000000   0.0000000   0.0000000   0.0000000   0.0000000   0.0000000   0.0000000   0.0000000   0.0000000   0.0000000
 NQMom=    0.0000000   0.0000000   0.0000000   0.0000000   0.0000000   0.0000000   0.0000000   2.0440000   0.0000000   0.0000000
 NMagM=    0.0000000   0.0000000   0.0000000   0.0000000   0.0000000   0.0000000   0.0000000   0.4037610   0.0000000   0.0000000
 AtZNuc=   6.0000000   6.0000000   6.0000000   6.0000000   8.0000000   6.0000000   8.0000000   7.0000000   6.0000000   6.0000000

  Atom        11          12          13          14          15          16          17          18          19          20
 IAtWgt=          12          12          16           1           1           1           1           1           1           1
 AtmWgt=  12.0000000  12.0000000  15.9949146   1.0078250   1.0078250   1.0078250   1.0078250   1.0078250   1.0078250   1.0078250
 NucSpn=           0           0           0           1           1           1           1           1           1           1
 AtZEff=   0.0000000   0.0000000   0.0000000   0.0000000   0.0000000   0.0000000   0.0000000   0.0000000   0.0000000   0.0000000
 NQMom=    0.0000000   0.0000000   0.0000000   0.0000000   0.0000000   0.0000000   0.0000000   0.0000000   0.0000000   0.0000000
 NMagM=    0.0000000   0.0000000   0.0000000   2.7928460   2.7928460   2.7928460   2.7928460   2.7928460   2.7928460   2.7928460
 AtZNuc=   6.0000000   6.0000000   8.0000000   1.0000000   1.0000000   1.0000000   1.0000000   1.0000000   1.0000000   1.0000000

  Atom        21          22          23          24          25          26          27          28          29          30
 IAtWgt=           1           1           1           1           1           1           1           1           1           1
 AtmWgt=   1.0078250   1.0078250   1.0078250   1.0078250   1.0078250   1.0078250   1.0078250   1.0078250   1.0078250   1.0078250
 NucSpn=           1           1           1           1           1           1           1           1           1           1
 AtZEff=   0.0000000   0.0000000   0.0000000   0.0000000   0.0000000   0.0000000   0.0000000   0.0000000   0.0000000   0.0000000
 NQMom=    0.0000000   0.0000000   0.0000000   0.0000000   0.0000000   0.0000000   0.0000000   0.0000000   0.0000000   0.0000000
 NMagM=    2.7928460   2.7928460   2.7928460   2.7928460   2.7928460   2.7928460   2.7928460   2.7928460   2.7928460   2.7928460
 AtZNuc=   1.0000000   1.0000000   1.0000000   1.0000000   1.0000000   1.0000000   1.0000000   1.0000000   1.0000000   1.0000000
 Leave Link  101 at Wed Oct 19 22:48:49 2011, MaxMem=  128000000 cpu:       0.9
 (Enter /home/foresman/gdv/l103.exe)

 GradGradGradGradGradGradGradGradGradGradGradGradGradGradGradGradGradGrad
 Berny optimization.
 Initialization pass.
 Trust Radius=3.00D-01 FncErr=1.00D-07 GrdErr=1.00D-07
 Number of steps in this run=      2 maximum allowed number of steps=      2.
 GradGradGradGradGradGradGradGradGradGradGradGradGradGradGradGradGradGrad

 Leave Link  103 at Wed Oct 19 22:48:49 2011, MaxMem=  128000000 cpu:       0.2
 (Enter /home/foresman/gdv/l202.exe)
                          Input orientation:                          
 ---------------------------------------------------------------------
 Center     Atomic      Atomic             Coordinates (Angstroms)
 Number     Number       Type             X           Y           Z
 ---------------------------------------------------------------------
      1          6           0       -0.295042   -3.031802   -0.216789
      2          6           0       -1.274260   -3.567637   -1.273391
      3          6           0        1.048373   -3.770056   -0.266238
      4          6           0       -0.903588   -3.056148    1.193893
      5          8           0        0.103255   -1.628222   -0.566213
      6          6           0       -0.875160   -0.643015   -0.612053
      7          8           0       -2.088260   -0.811681   -0.409443
      8          7           0       -0.297706    0.542221   -0.931058
      9          6           0       -1.088466    1.779417   -1.100036
     10          6           0       -0.184251    2.586201   -2.056535
     11          6           0        1.226675    2.248623   -1.518893
     12          6           0        1.144003    0.743589   -1.193620
     13          8           0        1.438772    2.892406   -0.219617
     14          1           0        1.409637    3.877412   -0.364454
     15          1           0       -1.510277   -4.615199   -1.058513
     16          1           0       -2.185522   -2.968642   -1.254606
     17          1           0       -0.817269   -3.503799   -2.266608
     18          1           0        0.902500   -4.828226   -0.027009
     19          1           0        1.482782   -3.682805   -1.266682
     20          1           0        1.740675   -3.328241    0.456531
     21          1           0       -1.135843   -4.088210    1.476646
     22          1           0       -0.187408   -2.643622    1.912230
     23          1           0       -1.813025   -2.453985    1.202413
     24          1           0       -1.185444    2.306049   -0.145228
     25          1           0       -2.073972    1.537913   -1.499356
     26          1           0       -0.288857    2.210550   -3.079546
     27          1           0       -0.391518    3.660080   -2.039200
     28          1           0        2.028472    2.474488   -2.233003
     29          1           0        1.751364    0.528990   -0.312341
     30          1           0        1.475362    0.123749   -2.031484
 ---------------------------------------------------------------------
                    Distance matrix (angstroms):
                    1          2          3          4          5
     1  C    0.000000
     2  C    1.537009   0.000000
     3  C    1.533697   2.539676   0.000000
     4  C    1.536537   2.546863   2.540038   0.000000
     5  O    1.500258   2.481729   2.360230   2.480056   0.000000
     6  C    2.489794   3.024907   3.687540   3.014209   1.389255
     7  O    2.860365   3.000717   4.314042   3.001961   2.343940
     8  N    3.644698   4.238134   4.566141   4.222649   2.237119
     9  C    4.955550   5.353089   6.004827   5.355276   3.649270
    10  C    5.912605   6.298504   6.717628   6.551246   4.479406
    11  C    5.647475   6.335915   6.150238   6.327544   4.147240
    12  C    4.156756   4.943787   4.608923   4.932631   2.665011
    13  O    6.172711   7.085418   6.674053   6.547515   4.726501
    14  H    7.117933   7.966067   7.656626   7.473534   5.662097
    15  H    2.166204   1.095108   2.808675   2.805716   3.430434
    16  H    2.157538   1.090664   3.475228   2.765169   2.740276
    17  H    2.167316   1.095169   2.748271   3.490402   2.693789
    18  H    2.167317   2.807283   1.094639   2.809415   3.342089
    19  H    2.164887   2.759454   1.094172   3.484521   2.571977
    20  H    2.164573   3.484217   1.094019   2.758598   2.572395
    21  H    2.165795   2.802295   2.812412   1.095008   3.429311
    22  H    2.166793   3.490449   2.746220   1.095034   2.694105
    23  H    2.156915   2.767688   3.475137   1.090756   2.735334
    24  H    5.412079   5.981708   6.474846   5.534063   4.161306
    25  H    5.068715   5.172741   6.280458   5.452411   3.954173
    26  H    5.973079   6.133568   6.743184   6.810160   4.605080
    27  H    6.936265   7.321584   7.773262   7.471467   5.511863
    28  H    6.307382   6.952422   6.619901   7.136423   4.828756
    29  H    4.108059   5.182699   4.356388   4.708580   2.726587
    30  H    4.047833   4.664918   4.296525   5.116073   2.664414
                    6          7          8          9         10
     6  C    0.000000
     7  O    1.241414   0.000000
     8  N    1.356466   2.304607   0.000000
     9  C    2.480283   2.861869   1.478009   0.000000
    10  C    3.604403   4.228920   2.336114   1.543825   0.000000
    11  C    3.688040   4.645980   2.362435   2.399057   1.547169
    12  C    2.517521   3.671692   1.479194   2.462847   2.429835
    13  O    4.243523   5.118227   3.007470   2.898416   2.470270
    14  H    5.071081   5.850205   3.789402   3.344126   2.659105
    15  H    4.047338   3.901552   5.299580   6.408648   7.390166
    16  H    2.745626   2.318673   3.999336   4.875602   5.958562
    17  H    3.305297   3.508843   4.292308   5.417270   6.126413
    18  H    4.584577   5.022304   5.576692   6.984002   7.763616
    19  H    3.902404   4.661604   4.597132   6.039451   6.534777
    20  H    3.898064   4.663017   4.589213   6.042774   6.708313
    21  H    4.037324   3.898727   5.285867   6.408633   7.611613
    22  H    3.293544   3.515596   4.271539   5.426687   6.565223
    23  H    2.729741   2.317541   3.978082   4.873187   6.219093
    24  H    3.001863   3.256551   2.125253   1.094717   2.175768
    25  H    2.642140   2.590117   2.114116   1.090414   2.231681
    26  H    3.817736   4.416014   2.720184   2.178006   1.094809
    27  H    4.559308   5.052889   3.310261   2.214646   1.093836
    28  H    4.558222   5.574205   3.292389   3.388516   2.222558
    29  H    2.891721   4.068112   2.140485   3.201354   3.319779
    30  H    2.850906   4.025599   2.128339   3.190932   2.969615
                   11         12         13         14         15
    11  C    0.000000
    12  C    1.542000   0.000000
    13  O    1.465456   2.377601   0.000000
    14  H    2.004784   3.252526   0.996024   0.000000
    15  H    7.403709   5.981644   8.109548   9.007333   0.000000
    16  H    6.239614   4.986995   6.968400   7.783701   1.790407
    17  H    6.150377   4.799812   7.084584   7.941006   1.781842
    18  H    7.239654   5.697756   7.741631   8.726923   2.632655
    19  H    5.942309   4.439941   6.658205   7.614214   3.141829
    20  H    5.938678   4.433826   6.264565   7.259824   3.810552
    21  H    7.396634   5.972796   7.631183   8.562724   2.616285
    22  H    6.140545   4.784575   6.151166   7.089269   3.802948
    23  H    6.225737   4.970862   6.417184   7.275109   3.142339
    24  H    2.776432   2.994450   2.689955   3.041659   6.988797
    25  H    3.376353   3.328631   3.976399   4.347043   6.194585
    26  H    2.175758   2.785997   3.410106   3.610406   7.222693
    27  H    2.209408   3.402756   2.692613   2.469041   8.407949
    28  H    1.097200   2.204227   2.139188   2.417153   8.010358
    29  H    2.165225   1.091601   2.385801   3.366218   6.136591
    30  H    2.199928   1.093625   3.309027   4.107711   5.684922
                   16         17         18         19         20
    16  H    0.000000
    17  H    1.784000   0.000000
    18  H    3.808008   3.118896   0.000000
    19  H    3.737195   2.514384   1.784798   0.000000
    20  H    4.297944   3.740238   1.785022   1.778113   0.000000
    21  H    3.132889   3.801969   2.638834   3.814105   3.145241
    22  H    3.758583   4.312692   3.117858   3.738303   2.511029
    23  H    2.537828   3.758690   3.810850   4.297531   3.734896
    24  H    5.482084   6.195978   7.434472   6.651577   6.377266
    25  H    4.514575   5.252318   7.180176   6.321435   6.485097
    26  H    5.809628   5.796022   7.764128   6.415358   6.877575
    27  H    6.911873   7.180121   8.818999   7.617595   7.720852
    28  H    6.952889   6.621124   7.711281   6.256502   6.402194
    29  H    5.349800   5.165309   5.431551   4.326907   3.933130
    30  H    4.854740   4.297737   5.372909   3.882632   4.263431
                   21         22         23         24         25
    21  H    0.000000
    22  H    1.782161   0.000000
    23  H    1.790103   1.783937   0.000000
    24  H    6.596930   5.452381   4.986774   0.000000
    25  H    6.433501   5.716929   4.827308   1.792534   0.000000
    26  H    7.819888   6.963555   6.512768   3.069725   2.477110
    27  H    8.541147   7.442588   7.064738   2.459847   2.761462
    28  H    8.175781   6.948966   7.130850   3.836201   4.271470
    29  H    5.731926   4.332784   4.888506   3.436672   4.130390
    30  H    6.071735   5.096668   5.283587   3.924320   3.857563
                   26         27         28         29         30
    26  H    0.000000
    27  H    1.787176   0.000000
    28  H    2.481191   2.701766   0.000000
    29  H    3.827214   4.168658   2.747853   0.000000
    30  H    2.926712   3.998867   2.423327   1.787693   0.000000
 Stoichiometry    C9H17NO3
 Framework group  C1[X(C9H17NO3)]
 Deg. of freedom    84
 Full point group                 C1      NOp   1
 Largest Abelian subgroup         C1      NOp   1
 Largest concise Abelian subgroup C1      NOp   1
                         Standard orientation:                         
 ---------------------------------------------------------------------
 Center     Atomic      Atomic             Coordinates (Angstroms)
 Number     Number       Type             X           Y           Z
 ---------------------------------------------------------------------
      1          6           0       -2.590812   -0.294927   -0.018277
      2          6           0       -3.087979    0.693375   -1.085273
      3          6           0       -3.066641   -1.724050   -0.307100
      4          6           0       -2.972200    0.153504    1.401018
      5          8           0       -1.100129   -0.432888   -0.116272
      6          6           0       -0.305366    0.685686    0.100927
      7          8           0       -0.713204    1.830554    0.354020
      8          7           0        0.999077    0.334754   -0.022663
      9          6           0        2.092240    1.320680    0.109458
     10          6           0        3.200661    0.655958   -0.734901
     11          6           0        3.019059   -0.838114   -0.376432
     12          6           0        1.488572   -1.023474   -0.344571
     13          8           0        3.445626   -1.081051    1.004358
     14          1           0        4.420789   -0.884979    1.056088
     15          1           0       -4.181797    0.740903   -1.061477
     16          1           0       -2.667419    1.679505   -0.884717
     17          1           0       -2.769329    0.356844   -2.077545
     18          1           0       -4.159649   -1.769249   -0.268055
     19          1           0       -2.727886   -2.034023   -1.300264
     20          1           0       -2.649783   -2.410520    0.435776
     21          1           0       -4.062552    0.192725    1.493954
     22          1           0       -2.578822   -0.560503    2.132145
     23          1           0       -2.546414    1.139391    1.592016
     24          1           0        2.414202    1.398864    1.152833
     25          1           0        1.761020    2.292830   -0.256902
     26          1           0        3.002628    0.806255   -1.801110
     27          1           0        4.202226    1.024057   -0.494388
     28          1           0        3.503654   -1.517174   -1.089097
     29          1           0        1.226541   -1.744477    0.432015
     30          1           0        1.095512   -1.358454   -1.308578
 ---------------------------------------------------------------------
 Rotational constants (GHZ):      1.6768045      0.4154331      0.3798906
 Leave Link  202 at Wed Oct 19 22:48:49 2011, MaxMem=  128000000 cpu:       0.0
 (Enter /home/foresman/gdv/l301.exe)
 Standard basis: 3-21G (6D, 7F)
 Ernie: Thresh=  0.10000D-02 Tol=  0.10000D-05 Strict=F.
 There are   151 symmetry adapted cartesian basis functions of A   symmetry.
 There are   151 symmetry adapted basis functions of A   symmetry.
   151 basis functions,   246 primitive gaussians,   151 cartesian basis functions
    51 alpha electrons       51 beta electrons
       nuclear repulsion energy       879.4767477363 Hartrees.
 IExCor=  402 DFT=T Ex+Corr=B3LYP ExCW=0 ScaHFX=  0.200000
 ScaDFX=  0.800000  0.720000  1.000000  0.810000 ScalE2=  1.000000  1.000000
 IRadAn=      0 IRanWt=     -1 IRanGd=            0 ICorTp=0 IEmpDi=  4
 NAtoms=   30 NActive=   30 NUniq=   30 SFac= 1.00D+00 NAtFMM=   60 NAOKFM=F Big=F
 Integral buffers will be    131072 words long.
 Raffenetti 2 integral format.
 Two-electron integral symmetry is turned on.
 Leave Link  301 at Wed Oct 19 22:48:50 2011, MaxMem=  128000000 cpu:       0.8
 (Enter /home/foresman/gdv/l302.exe)
 NPDir=0 NMtPBC=     1 NCelOv=     1 NCel=       1 NClECP=     1 NCelD=      1
         NCelK=      1 NCelE2=     1 NClLst=     1 CellRange=     0.0.
 One-electron integrals computed using PRISM.
 NBasis=   151 RedAO= T EigKep=  9.11D-03  NBF=   151
 NBsUse=   151 1.00D-06 EigRej= -1.00D+00 NBFU=   151
 Precomputing XC quadrature grid using
 IXCGrd= 2 IRadAn=           0 IRanWt=          -1 IRanGd=           0 AccXCQ= 0.00D+00.
 NRdTot=    1900 NPtTot=      240388 NUsed=      254091 NTot=      254123
 NSgBfM=   148   148   148   148   148 NAtAll=    30    30.
 Leave Link  302 at Wed Oct 19 22:48:50 2011, MaxMem=  128000000 cpu:       2.2
 (Enter /home/foresman/gdv/l303.exe)
 DipDrv:  MaxL=2.
 Leave Link  303 at Wed Oct 19 22:48:50 2011, MaxMem=  128000000 cpu:       0.4
 (Enter /home/foresman/gdv/l401.exe)
 ExpMin= 1.83D-01 ExpMax= 3.22D+02 ExpMxC= 3.22D+02 IAcc=1 IRadAn=         1 AccDes= 0.00D+00
 Harris functional with IExCor=  402 and IRadAn=       1 diagonalized for initial guess.
 HarFok:  IExCor=  402 AccDes= 0.00D+00 IRadAn=         1 IDoV= 1 UseB2=F ITyADJ=14
 ICtDFT=  3500011 ScaDFX=  1.000000  1.000000  1.000000  1.000000
 FoFCou: FMM=F IPFlag=           0 FMFlag=      100000 FMFlg1=           0
         NFxFlg=           0 DoJE=T BraDBF=F KetDBF=T FulRan=T
         wScrn=  0.000000 ICntrl=     500 IOpCl=  0 I1Cent=   200000004 NGrid=           0
         NMat0=    1 NMatS0=      1 NMatT0=    0 NMatD0=    1 NMtDS0=    0 NMtDT0=    0
 Petite list used in FoFCou.
 Harris En= -630.190131993956    
 Initial guess orbital symmetries:
       Occupied  (A) (A) (A) (A) (A) (A) (A) (A) (A) (A) (A) (A)
                 (A) (A) (A) (A) (A) (A) (A) (A) (A) (A) (A) (A)
                 (A) (A) (A) (A) (A) (A) (A) (A) (A) (A) (A) (A)
                 (A) (A) (A) (A) (A) (A) (A) (A) (A) (A) (A) (A)
                 (A) (A) (A)
       Virtual   (A) (A) (A) (A) (A) (A) (A) (A) (A) (A) (A) (A)
                 (A) (A) (A) (A) (A) (A) (A) (A) (A) (A) (A) (A)
                 (A) (A) (A) (A) (A) (A) (A) (A) (A) (A) (A) (A)
                 (A) (A) (A) (A) (A) (A) (A) (A) (A) (A) (A) (A)
                 (A) (A) (A) (A) (A) (A) (A) (A) (A) (A) (A) (A)
                 (A) (A) (A) (A) (A) (A) (A) (A) (A) (A) (A) (A)
                 (A) (A) (A) (A) (A) (A) (A) (A) (A) (A) (A) (A)
                 (A) (A) (A) (A) (A) (A) (A) (A) (A) (A) (A) (A)
                 (A) (A) (A) (A)
 The electronic state of the initial guess is 1-A.
 Leave Link  401 at Wed Oct 19 22:48:50 2011, MaxMem=  128000000 cpu:       2.9
 (Enter /home/foresman/gdv/l502.exe)
 Closed shell SCF:
 Using DIIS extrapolation, IDIIS=  1040.
 Integral symmetry usage will be decided dynamically.
       253808 words used for storage of precomputed grid.
 Keep R1 ints in memory in canonical form, NReq=67953609.
 IVT=      342755 IEndB=      342755 NGot=   128000000 MDV=    61802220
 LenX=    61802220 LenY=    61778978
 Requested convergence on RMS density matrix=1.00D-08 within 128 cycles.
 Requested convergence on MAX density matrix=1.00D-06.
 Requested convergence on             energy=1.00D-06.
 No special actions if energy rises.
 FoFCou: FMM=F IPFlag=           0 FMFlag=           0 FMFlg1=           0
         NFxFlg=           0 DoJE=F BraDBF=F KetDBF=F FulRan=T
         wScrn=  0.000000 ICntrl=     600 IOpCl=  0 I1Cent=           0 NGrid=           0
         NMat0=    1 NMatS0=  11476 NMatT0=    0 NMatD0=    1 NMtDS0=    0 NMtDT0=    0
 Symmetry not used in FoFCou.
 Integral accuracy reduced to 1.0D-05 until final iterations.

 Cycle   1  Pass 0  IDiag  1:
 E= -629.848230494822    
 DIIS: error= 4.62D-02 at cycle   1 NSaved=   1.
 NSaved= 1 IEnMin= 1 EnMin= -629.848230494822     IErMin= 1 ErrMin= 4.62D-02
 ErrMax= 4.62D-02  0.00D+00 EMaxC= 1.00D-01 BMatC= 3.66D-01 BMatP= 3.66D-01
 IDIUse=3 WtCom= 5.38D-01 WtEn= 4.62D-01
 Coeff-Com:  0.100D+01
 Coeff-En:   0.100D+01
 Coeff:      0.100D+01
 Gap=     0.267 Goal=   None    Shift=    0.000
 GapD=    0.267 DampG=1.000 DampE=0.500 DampFc=0.5000 IDamp=-1.
 Damping current iteration by 5.00D-01
 RMSDP=8.97D-03 MaxDP=1.52D-01              OVMax= 3.09D-01

 Cycle   2  Pass 0  IDiag  1:
 E= -629.952404465037     Delta-E=       -0.104173970215 Rises=F Damp=T
 DIIS: error= 3.16D-02 at cycle   2 NSaved=   2.
 NSaved= 2 IEnMin= 2 EnMin= -629.952404465037     IErMin= 2 ErrMin= 3.16D-02
 ErrMax= 3.16D-02  0.00D+00 EMaxC= 1.00D-01 BMatC= 4.84D-02 BMatP= 3.66D-01
 IDIUse=3 WtCom= 6.84D-01 WtEn= 3.16D-01
 Coeff-Com:  0.196D+00 0.804D+00
 Coeff-En:   0.301D+00 0.699D+00
 Coeff:      0.230D+00 0.770D+00
 Gap=     0.331 Goal=   None    Shift=    0.000
 RMSDP=2.70D-03 MaxDP=5.67D-02 DE=-1.04D-01 OVMax= 1.57D-01

 Cycle   3  Pass 0  IDiag  1:
 E= -630.129666390354     Delta-E=       -0.177261925317 Rises=F Damp=F
 DIIS: error= 3.91D-02 at cycle   3 NSaved=   3.
 NSaved= 3 IEnMin= 3 EnMin= -630.129666390354     IErMin= 2 ErrMin= 3.16D-02
 ErrMax= 3.91D-02  0.00D+00 EMaxC= 1.00D-01 BMatC= 5.80D-02 BMatP= 4.84D-02
 IDIUse=2 WtCom= 0.00D+00 WtEn= 1.00D+00
 Coeff-En:   0.000D+00 0.000D+00 0.100D+01
 Coeff:      0.000D+00 0.000D+00 0.100D+01
 Gap=     0.328 Goal=   None    Shift=    0.000
 RMSDP=5.09D-03 MaxDP=1.26D-01 DE=-1.77D-01 OVMax= 2.99D-01

 Cycle   4  Pass 0  IDiag  1:
 E= -629.901638127690     Delta-E=        0.228028262665 Rises=F Damp=F
 DIIS: error= 1.08D-01 at cycle   4 NSaved=   4.
 NSaved= 4 IEnMin= 3 EnMin= -630.129666390354     IErMin= 2 ErrMin= 3.16D-02
 ErrMax= 1.08D-01  0.00D+00 EMaxC= 1.00D-01 BMatC= 3.51D-01 BMatP= 4.84D-02
 IDIUse=2 WtCom= 0.00D+00 WtEn= 1.00D+00
 Coeff-En:   0.000D+00 0.000D+00 0.797D+00 0.203D+00
 Coeff:      0.000D+00 0.000D+00 0.797D+00 0.203D+00
 Gap=     0.292 Goal=   None    Shift=    0.000
 RMSDP=2.75D-03 MaxDP=7.12D-02 DE= 2.28D-01 OVMax= 1.36D-01

 Cycle   5  Pass 0  IDiag  1:
 E= -630.159325433251     Delta-E=       -0.257687305562 Rises=F Damp=F
 DIIS: error= 2.62D-02 at cycle   5 NSaved=   5.
 NSaved= 5 IEnMin= 5 EnMin= -630.159325433251     IErMin= 5 ErrMin= 2.62D-02
 ErrMax= 2.62D-02  0.00D+00 EMaxC= 1.00D-01 BMatC= 2.35D-02 BMatP= 4.84D-02
 IDIUse=3 WtCom= 7.38D-01 WtEn= 2.62D-01
 Coeff-Com: -0.951D-02 0.477D-01 0.321D+00-0.669D-01 0.707D+00
 Coeff-En:   0.000D+00 0.000D+00 0.326D+00 0.000D+00 0.674D+00
 Coeff:     -0.702D-02 0.352D-01 0.323D+00-0.493D-01 0.698D+00
 Gap=     0.300 Goal=   None    Shift=    0.000
 RMSDP=1.03D-03 MaxDP=2.54D-02 DE=-2.58D-01 OVMax= 4.23D-02

 Cycle   6  Pass 0  IDiag  1:
 E= -630.178341385477     Delta-E=       -0.019015952226 Rises=F Damp=F
 DIIS: error= 2.47D-03 at cycle   6 NSaved=   6.
 NSaved= 6 IEnMin= 6 EnMin= -630.178341385477     IErMin= 6 ErrMin= 2.47D-03
 ErrMax= 2.47D-03  0.00D+00 EMaxC= 1.00D-01 BMatC= 2.47D-04 BMatP= 2.35D-02
 IDIUse=3 WtCom= 9.75D-01 WtEn= 2.47D-02
 Coeff-Com: -0.853D-02 0.212D-01 0.133D+00-0.434D-01 0.392D+00 0.506D+00
 Coeff-En:   0.000D+00 0.000D+00 0.000D+00 0.000D+00 0.000D+00 0.100D+01
 Coeff:     -0.832D-02 0.206D-01 0.130D+00-0.423D-01 0.383D+00 0.518D+00
 Gap=     0.287 Goal=   None    Shift=    0.000
 RMSDP=1.10D-04 MaxDP=3.27D-03 DE=-1.90D-02 OVMax= 5.87D-03

 Cycle   7  Pass 0  IDiag  1:
 E= -630.178534944286     Delta-E=       -0.000193558809 Rises=F Damp=F
 DIIS: error= 4.43D-04 at cycle   7 NSaved=   7.
 NSaved= 7 IEnMin= 7 EnMin= -630.178534944286     IErMin= 7 ErrMin= 4.43D-04
 ErrMax= 4.43D-04  0.00D+00 EMaxC= 1.00D-01 BMatC= 9.11D-06 BMatP= 2.47D-04
 IDIUse=3 WtCom= 9.96D-01 WtEn= 4.43D-03
 Coeff-Com: -0.323D-02 0.786D-02 0.381D-01-0.181D-01 0.135D+00 0.265D+00
 Coeff-Com:  0.576D+00
 Coeff-En:   0.000D+00 0.000D+00 0.000D+00 0.000D+00 0.000D+00 0.000D+00
 Coeff-En:   0.100D+01
 Coeff:     -0.322D-02 0.782D-02 0.380D-01-0.180D-01 0.134D+00 0.263D+00
 Coeff:      0.578D+00
 Gap=     0.286 Goal=   None    Shift=    0.000
 RMSDP=1.83D-05 MaxDP=4.83D-04 DE=-1.94D-04 OVMax= 7.07D-04

 Cycle   8  Pass 0  IDiag  1:
 E= -630.178541990153     Delta-E=       -0.000007045867 Rises=F Damp=F
 DIIS: error= 6.59D-05 at cycle   8 NSaved=   8.
 NSaved= 8 IEnMin= 8 EnMin= -630.178541990153     IErMin= 8 ErrMin= 6.59D-05
 ErrMax= 6.59D-05  0.00D+00 EMaxC= 1.00D-01 BMatC= 4.46D-07 BMatP= 9.11D-06
 IDIUse=1 WtCom= 1.00D+00 WtEn= 0.00D+00
 Coeff-Com: -0.194D-03-0.139D-03 0.225D-02-0.144D-02 0.115D-01 0.756D-01
 Coeff-Com:  0.253D+00 0.659D+00
 Coeff:     -0.194D-03-0.139D-03 0.225D-02-0.144D-02 0.115D-01 0.756D-01
 Coeff:      0.253D+00 0.659D+00
 Gap=     0.286 Goal=   None    Shift=    0.000
 RMSDP=5.41D-06 MaxDP=1.16D-04 DE=-7.05D-06 OVMax= 1.73D-04

 Initial convergence to 1.0D-05 achieved.  Increase integral accuracy.
 Cycle   9  Pass 1  IDiag  1:
 E= -630.178663974254     Delta-E=       -0.000121984102 Rises=F Damp=F
 DIIS: error= 1.93D-05 at cycle   1 NSaved=   1.
 NSaved= 1 IEnMin= 1 EnMin= -630.178663974254     IErMin= 1 ErrMin= 1.93D-05
 ErrMax= 1.93D-05  0.00D+00 EMaxC= 1.00D-01 BMatC= 6.55D-08 BMatP= 6.55D-08
 IDIUse=1 WtCom= 1.00D+00 WtEn= 0.00D+00
 Coeff-Com:  0.100D+01
 Coeff:      0.100D+01
 Gap=     0.286 Goal=   None    Shift=    0.000
 RMSDP=5.41D-06 MaxDP=1.16D-04 DE=-1.22D-04 OVMax= 8.92D-05

 Cycle  10  Pass 1  IDiag  1:
 E= -630.178664049325     Delta-E=       -0.000000075071 Rises=F Damp=F
 DIIS: error= 1.55D-05 at cycle   2 NSaved=   2.
 NSaved= 2 IEnMin= 2 EnMin= -630.178664049325     IErMin= 2 ErrMin= 1.55D-05
 ErrMax= 1.55D-05  0.00D+00 EMaxC= 1.00D-01 BMatC= 2.32D-08 BMatP= 6.55D-08
 IDIUse=1 WtCom= 1.00D+00 WtEn= 0.00D+00
 Coeff-Com:  0.318D+00 0.682D+00
 Coeff:      0.318D+00 0.682D+00
 Gap=     0.286 Goal=   None    Shift=    0.000
 RMSDP=1.74D-06 MaxDP=2.88D-05 DE=-7.51D-08 OVMax= 6.71D-05

 Cycle  11  Pass 1  IDiag  1:
 E= -630.178664057552     Delta-E=       -0.000000008227 Rises=F Damp=F
 DIIS: error= 1.40D-05 at cycle   3 NSaved=   3.
 NSaved= 3 IEnMin= 3 EnMin= -630.178664057552     IErMin= 3 ErrMin= 1.40D-05
 ErrMax= 1.40D-05  0.00D+00 EMaxC= 1.00D-01 BMatC= 1.38D-08 BMatP= 2.32D-08
 IDIUse=1 WtCom= 1.00D+00 WtEn= 0.00D+00
 Coeff-Com: -0.429D-02 0.434D+00 0.570D+00
 Coeff:     -0.429D-02 0.434D+00 0.570D+00
 Gap=     0.286 Goal=   None    Shift=    0.000
 RMSDP=7.49D-07 MaxDP=2.11D-05 DE=-8.23D-09 OVMax= 3.39D-05

 Cycle  12  Pass 1  IDiag  1:
 E= -630.178664066869     Delta-E=       -0.000000009317 Rises=F Damp=F
 DIIS: error= 3.04D-06 at cycle   4 NSaved=   4.
 NSaved= 4 IEnMin= 4 EnMin= -630.178664066869     IErMin= 4 ErrMin= 3.04D-06
 ErrMax= 3.04D-06  0.00D+00 EMaxC= 1.00D-01 BMatC= 7.37D-10 BMatP= 1.38D-08
 IDIUse=1 WtCom= 1.00D+00 WtEn= 0.00D+00
 Coeff-Com: -0.152D-01 0.229D+00 0.333D+00 0.453D+00
 Coeff:     -0.152D-01 0.229D+00 0.333D+00 0.453D+00
 Gap=     0.286 Goal=   None    Shift=    0.000
 RMSDP=2.14D-07 MaxDP=8.77D-06 DE=-9.32D-09 OVMax= 8.22D-06

 Cycle  13  Pass 1  IDiag  1:
 E= -630.178664067492     Delta-E=       -0.000000000623 Rises=F Damp=F
 DIIS: error= 1.18D-06 at cycle   5 NSaved=   5.
 NSaved= 5 IEnMin= 5 EnMin= -630.178664067492     IErMin= 5 ErrMin= 1.18D-06
 ErrMax= 1.18D-06  0.00D+00 EMaxC= 1.00D-01 BMatC= 4.66D-11 BMatP= 7.37D-10
 IDIUse=1 WtCom= 1.00D+00 WtEn= 0.00D+00
 Coeff-Com: -0.804D-02 0.103D+00 0.151D+00 0.268D+00 0.486D+00
 Coeff:     -0.804D-02 0.103D+00 0.151D+00 0.268D+00 0.486D+00
 Gap=     0.286 Goal=   None    Shift=    0.000
 RMSDP=5.93D-08 MaxDP=1.16D-06 DE=-6.23D-10 OVMax= 2.69D-06

 Cycle  14  Pass 1  IDiag  1:
 E= -630.178664067502     Delta-E=       -0.000000000010 Rises=F Damp=F
 DIIS: error= 5.05D-07 at cycle   6 NSaved=   6.
 NSaved= 6 IEnMin= 6 EnMin= -630.178664067502     IErMin= 6 ErrMin= 5.05D-07
 ErrMax= 5.05D-07  0.00D+00 EMaxC= 1.00D-01 BMatC= 8.59D-12 BMatP= 4.66D-11
 IDIUse=1 WtCom= 1.00D+00 WtEn= 0.00D+00
 Coeff-Com: -0.260D-02 0.260D-01 0.372D-01 0.942D-01 0.317D+00 0.528D+00
 Coeff:     -0.260D-02 0.260D-01 0.372D-01 0.942D-01 0.317D+00 0.528D+00
 Gap=     0.286 Goal=   None    Shift=    0.000
 RMSDP=1.88D-08 MaxDP=3.74D-07 DE=-1.02D-11 OVMax= 9.75D-07

 Cycle  15  Pass 1  IDiag  1:
 E= -630.178664067517     Delta-E=       -0.000000000015 Rises=F Damp=F
 DIIS: error= 5.19D-08 at cycle   7 NSaved=   7.
 NSaved= 7 IEnMin= 7 EnMin= -630.178664067517     IErMin= 7 ErrMin= 5.19D-08
 ErrMax= 5.19D-08  0.00D+00 EMaxC= 1.00D-01 BMatC= 4.74D-13 BMatP= 8.59D-12
 IDIUse=1 WtCom= 1.00D+00 WtEn= 0.00D+00
 Coeff-Com: -0.644D-03 0.410D-02 0.549D-02 0.248D-01 0.124D+00 0.266D+00
 Coeff-Com:  0.576D+00
 Coeff:     -0.644D-03 0.410D-02 0.549D-02 0.248D-01 0.124D+00 0.266D+00
 Coeff:      0.576D+00
 Gap=     0.286 Goal=   None    Shift=    0.000
 RMSDP=5.68D-09 MaxDP=1.73D-07 DE=-1.55D-11 OVMax= 1.61D-07

 SCF Done:  E(RB3LYP) =  -630.178664068     A.U. after   15 cycles
            NFock= 15  Conv=0.57D-08     -V/T= 2.0085
 KE= 6.248554264571D+02 PE=-3.228800132624D+03 EE= 1.094289294363D+03
 Leave Link  502 at Wed Oct 19 22:49:03 2011, MaxMem=  128000000 cpu:      97.9
 (Enter /home/foresman/gdv/l801.exe)
 DoSCS=F DFT=T ScalE2(SS,OS)=  1.000000  1.000000
 Range of M.O.s used for correlation:     1   151
 NBasis=   151 NAE=    51 NBE=    51 NFC=     0 NFV=     0
 NROrb=    151 NOA=    51 NOB=    51 NVA=   100 NVB=   100
 Leave Link  801 at Wed Oct 19 22:49:03 2011, MaxMem=  128000000 cpu:       0.3
 (Enter /home/foresman/gdv/l1002.exe)
 Minotr:  Closed shell wavefunction.
          Direct CPHF calculation.
          Differentiating once with respect to magnetic field using GIAOs.
          Electric field/nuclear overlap derivatives assumed to be zero.
          Requested convergence is 1.0D-08 RMS, and 1.0D-07 maximum.
          Secondary convergence is 1.0D-12 RMS, and 1.0D-12 maximum.
          NewPWx=T KeepS1=F KeepF1=F KeepIn=T MapXYZ=F SortEE=F KeepMc=T.
          MDV=     127999605 using IRadAn=       2.
 Generate precomputed XC quadrature information.
 Keep R3 ints in memory in canonical form, NReq=67618787.
 FoFCou: FMM=F IPFlag=           0 FMFlag=           0 FMFlg1=           0
         NFxFlg=           0 DoJE=F BraDBF=F KetDBF=F FulRan=T
         wScrn=  0.000000 ICntrl=     600 IOpCl=  0 I1Cent=           0 NGrid=           0
         NMat0=    1 NMatS0=  11476 NMatT0=    0 NMatD0=    1 NMtDS0=    0 NMtDT0=    0
 Symmetry not used in FoFCou.
          Solving linear equations simultaneously, MaxMat=       0.
 FoFJK:  IHMeth= 1 ICntrl=    6127 DoSepK=F KAlg= 0 I1Cent=   0 FoldK=F
 IRaf=       1 NMat=   1 IRICut=       1 DoRegI=T DoRafI=F ISym2E= 0.
          There are     3 degrees of freedom in the 1st order CPHF.  IDoFFX=0 NUNeed=     3.
      3 vectors produced by pass  0 Test12= 1.70D-13 3.33D-08 XBig12= 2.64D+01 8.25D-01.
 AX will form     3 AO Fock derivatives at one time.
      3 vectors produced by pass  1 Test12= 1.70D-13 3.33D-08 XBig12= 3.16D-02 7.50D-02.
      3 vectors produced by pass  2 Test12= 1.70D-13 3.33D-08 XBig12= 1.81D-04 5.95D-03.
      3 vectors produced by pass  3 Test12= 1.70D-13 3.33D-08 XBig12= 4.28D-07 2.85D-04.
      3 vectors produced by pass  4 Test12= 1.70D-13 3.33D-08 XBig12= 1.10D-09 1.09D-05.
      3 vectors produced by pass  5 Test12= 1.70D-13 3.33D-08 XBig12= 2.55D-12 6.99D-07.
 InvSVY:  IOpt=1 It=  1 EMax= 1.11D-16
 Solved reduced A of dimension    18 with     3 vectors.
 Calculating GIAO nuclear magnetic shielding tensors.
 SCF GIAO Magnetic shielding tensor (ppm):
      1  C    Isotropic =   124.4489   Anisotropy =    68.6290
   XX=   170.0673   YX=     0.2179   ZX=    -3.1555
   XY=     0.5726   YY=    99.8073   ZY=    -0.9226
   XZ=    -2.7722   YZ=    -0.8355   ZZ=   103.4722
   Eigenvalues:    99.6063   103.5389   170.2016
      2  C    Isotropic =   178.4523   Anisotropy =    35.4465
   XX=   171.8740   YX=    -9.7178   ZX=     5.6420
   XY=    -8.4951   YY=   175.8841   ZY=   -17.3147
   XZ=     2.0787   YZ=   -16.5880   ZZ=   187.5987
   Eigenvalues:   160.8817   172.3918   202.0832
      3  C    Isotropic =   173.8273   Anisotropy =    40.9474
   XX=   164.2278   YX=    12.1453   ZX=     2.3907
   XY=     9.6343   YY=   196.2910   ZY=     7.4341
   XZ=     2.0672   YZ=     7.3588   ZZ=   160.9632
   Eigenvalues:   159.4761   160.8803   201.1256
      4  C    Isotropic =   178.7934   Anisotropy =    35.3182
   XX=   171.2714   YX=    -5.7831   ZX=    -6.7630
   XY=    -6.4131   YY=   165.1013   ZY=     7.3091
   XZ=    -2.4408   YZ=     6.3054   ZZ=   200.0076
   Eigenvalues:   161.0240   173.0174   202.3389
      5  O    Isotropic =   159.8443   Anisotropy =    81.7592
   XX=   126.3976   YX=    11.1957   ZX=     3.8621
   XY=   125.8941   YY=   155.2250   ZY=   -14.2545
   XZ=    45.5659   YZ=    -9.5450   ZZ=   197.9103
   Eigenvalues:    65.3817   199.8007   214.3504
      6  C    Isotropic =    62.4379   Anisotropy =    63.2831
   XX=    10.9612   YX=   -37.0231   ZX=    -5.5855
   XY=   -54.0343   YY=    82.1776   ZY=    -1.2038
   XZ=    -8.9053   YZ=    -2.2903   ZZ=    94.1749
   Eigenvalues:   -11.7307    94.4177   104.6266
      7  O    Isotropic =    46.8611   Anisotropy =   376.0389
   XX=   -62.5859   YX=    10.4933   ZX=     8.2505
   XY=    -5.1079   YY=   -69.3800   ZY=   -80.4492
   XZ=    27.8701   YZ=  -107.8870   ZZ=   272.5490
   Eigenvalues:   -95.1830   -61.7874   297.5536
      8  N    Isotropic =   176.7223   Anisotropy =   132.1701
   XX=   260.0688   YX=    -9.9067   ZX=   -15.9301
   XY=   -23.5371   YY=   128.2951   ZY=    -4.2022
   XZ=   -21.5154   YZ=    -2.9824   ZZ=   141.8029
   Eigenvalues:   123.9655   141.3656   264.8357
      9  C    Isotropic =   159.1575   Anisotropy =    48.1686
   XX=   175.5120   YX=    23.5112   ZX=    -7.1071
   XY=    18.6241   YY=   161.6784   ZY=     1.5469
   XZ=   -12.5165   YZ=     8.6953   ZZ=   140.2822
   Eigenvalues:   132.7095   153.4932   191.2699
     10  C    Isotropic =   167.5375   Anisotropy =    21.1996
   XX=   168.7473   YX=     1.5059   ZX=    -0.8880
   XY=     3.6180   YY=   180.3905   ZY=    -5.6039
   XZ=    -9.6131   YZ=    -1.2868   ZZ=   153.4748
   Eigenvalues:   151.6162   169.3257   181.6706
     11  C    Isotropic =   130.8772   Anisotropy =    31.9006
   XX=   127.7111   YX=    -2.1515   ZX=    11.6306
   XY=    -1.0093   YY=   126.7578   ZY=    -5.3164
   XZ=    18.7560   YZ=   -14.1318   ZZ=   138.1626
   Eigenvalues:   114.8853   125.6020   152.1442
     12  C    Isotropic =   151.1362   Anisotropy =    32.1142
   XX=   165.4487   YX=    -6.9100   ZX=    -5.0795
   XY=   -13.8967   YY=   154.8216   ZY=     0.2490
   XZ=    -4.6939   YZ=     4.3104   ZZ=   133.1383
   Eigenvalues:   132.3873   148.4756   172.5457
     13  O    Isotropic =   263.1645   Anisotropy =   118.2716
   XX=   326.1409   YX=    29.0441   ZX=    43.0254
   XY=    40.1740   YY=   235.3041   ZY=    -6.6567
   XZ=    12.9871   YZ=   -25.6759   ZZ=   228.0486
   Eigenvalues:   199.8987   247.5826   342.0123
     14  H    Isotropic =    32.6361   Anisotropy =    17.2952
   XX=    42.1558   YX=     0.7358   ZX=     5.4769
   XY=     1.5507   YY=    25.9743   ZY=    -1.8544
   XZ=     5.2321   YZ=    -1.2544   ZZ=    29.7782
   Eigenvalues:    24.8040    28.9381    44.1662
     15  H    Isotropic =    31.9714   Anisotropy =     9.1552
   XX=    36.3417   YX=    -2.4120   ZX=     2.0382
   XY=    -2.7793   YY=    29.5193   ZY=    -1.6087
   XZ=     2.3829   YZ=    -1.6262   ZZ=    30.0532
   Eigenvalues:    28.0850    29.7543    38.0749
     16  H    Isotropic =    29.7675   Anisotropy =     6.5109
   XX=    29.2236   YX=     0.7383   ZX=     2.5318
   XY=     1.2581   YY=    33.7409   ZY=    -0.7293
   XZ=     3.4276   YZ=    -2.4596   ZZ=    26.3379
   Eigenvalues:    24.1030    31.0914    34.1081
     17  H    Isotropic =    31.8296   Anisotropy =     7.7375
   XX=    29.7715   YX=    -0.5937   ZX=     0.7326
   XY=    -0.3023   YY=    28.8123   ZY=    -1.3909
   XZ=    -0.1389   YZ=    -0.0903   ZZ=    36.9050
   Eigenvalues:    28.5940    29.9068    36.9879
     18  H    Isotropic =    31.7791   Anisotropy =     8.8851
   XX=    35.6020   YX=     3.3850   ZX=     0.3446
   XY=     3.7178   YY=    31.5205   ZY=     0.5624
   XZ=     0.5034   YZ=     0.5874   ZZ=    28.2149
   Eigenvalues:    28.1099    29.5249    37.7025
     19  H    Isotropic =    31.3453   Anisotropy =     7.8507
   XX=    28.9491   YX=     0.8125   ZX=    -0.2623
   XY=     0.1082   YY=    32.4500   ZY=     4.6327
   XZ=    -0.6523   YZ=     3.4366   ZZ=    32.6366
   Eigenvalues:    28.0430    29.4137    36.5791
     20  H    Isotropic =    31.2855   Anisotropy =     7.9301
   XX=    29.0067   YX=     0.3433   ZX=     0.5732
   XY=    -0.6186   YY=    35.4783   ZY=    -3.3646
   XZ=     0.8024   YZ=    -2.1927   ZZ=    29.3714
   Eigenvalues:    27.9573    29.3269    36.5722
     21  H    Isotropic =    31.9672   Anisotropy =     9.1716
   XX=    35.8071   YX=    -1.1399   ZX=    -3.3769
   XY=    -1.3818   YY=    28.3301   ZY=     0.9479
   XZ=    -3.6442   YZ=     0.8652   ZZ=    31.7644
   Eigenvalues:    28.0713    29.7487    38.0816
     22  H    Isotropic =    31.7413   Anisotropy =     7.8510
   XX=    29.6414   YX=    -0.5117   ZX=    -0.4772
   XY=    -0.5209   YY=    29.5616   ZY=    -1.9556
   XZ=     0.6549   YZ=    -3.3359   ZZ=    36.0209
   Eigenvalues:    28.4416    29.8070    36.9753
     23  H    Isotropic =    29.7293   Anisotropy =     6.4514
   XX=    28.7517   YX=     2.1405   ZX=    -2.2028
   XY=     2.8026   YY=    31.2580   ZY=     2.7601
   XZ=    -2.7013   YZ=     4.4337   ZZ=    29.1783
   Eigenvalues:    23.9757    31.1821    34.0302
     24  H    Isotropic =    29.0667   Anisotropy =     9.4007
   XX=    28.6014   YX=     1.8851   ZX=     2.7415
   XY=     1.3082   YY=    26.9931   ZY=     3.9462
   XZ=     2.2920   YZ=     4.2822   ZZ=    31.6056
   Eigenvalues:    24.5792    27.2870    35.3338
     25  H    Isotropic =    29.2693   Anisotropy =     7.9935
   XX=    29.7071   YX=     1.2031   ZX=    -0.9832
   XY=    -0.6864   YY=    34.4085   ZY=    -1.3453
   XZ=    -0.6648   YZ=    -1.3218   ZZ=    23.6922
   Eigenvalues:    23.4300    29.7795    34.5982
     26  H    Isotropic =    31.1281   Anisotropy =     9.5671
   XX=    28.9192   YX=    -0.0437   ZX=    -1.6397
   XY=     0.3793   YY=    28.6684   ZY=    -3.1984
   XZ=    -2.6228   YZ=    -3.1769   ZZ=    35.7967
   Eigenvalues:    27.1743    28.7039    37.5062
     27  H    Isotropic =    31.6058   Anisotropy =    10.0429
   XX=    37.0064   YX=     2.8654   ZX=    -0.7026
   XY=     3.3182   YY=    30.1646   ZY=    -0.0152
   XZ=    -1.2079   YZ=    -0.8967   ZZ=    27.6464
   Eigenvalues:    27.5372    28.9791    38.3011
     28  H    Isotropic =    28.7207   Anisotropy =     7.5430
   XX=    27.9512   YX=    -2.3566   ZX=    -1.2209
   XY=    -3.3793   YY=    28.6852   ZY=     2.4832
   XZ=    -1.8240   YZ=     3.4781   ZZ=    29.5257
   Eigenvalues:    25.1661    27.2466    33.7494
     29  H    Isotropic =    29.4630   Anisotropy =     6.6983
   XX=    30.4116   YX=     0.4078   ZX=    -1.0304
   XY=     0.6148   YY=    32.1422   ZY=    -3.6008
   XZ=    -0.7287   YZ=    -3.4862   ZZ=    25.8351
   Eigenvalues:    24.1879    30.2725    33.9285
     30  H    Isotropic =    29.5410   Anisotropy =     7.2044
   XX=    30.5231   YX=     0.1052   ZX=     1.3614
   XY=     0.0288   YY=    28.8084   ZY=     4.1212
   XZ=     2.4126   YZ=     5.3634   ZZ=    29.2914
   Eigenvalues:    24.0516    30.2274    34.3439
 End of Minotr F.D. properties file   721 does not exist.
 End of Minotr F.D. properties file   722 does not exist.
 Leave Link 1002 at Wed Oct 19 22:49:13 2011, MaxMem=  128000000 cpu:      80.1
 (Enter /home/foresman/gdv/l1101.exe)
 Using compressed storage, NAtomX=    30.
 Will process     31 centers per pass.
 Leave Link 1101 at Wed Oct 19 22:49:13 2011, MaxMem=  128000000 cpu:       1.9
 (Enter /home/foresman/gdv/l1102.exe)
 Symmetrizing basis deriv contribution to polar:
 IMax=3 JMax=2 DiffMx= 0.00D+00
 Leave Link 1102 at Wed Oct 19 22:49:13 2011, MaxMem=  128000000 cpu:       0.4
 (Enter /home/foresman/gdv/l1110.exe)
 Forming Gx(P) for the SCF density, NAtomX=    30.
 Integral derivatives from FoFJK, PRISM(SPDF).
 Do as many integral derivatives as possible in FoFJK.
 G2DrvN: MDV=     127999656.
 G2DrvN: will do    31 centers at a time, making    1 passes.
 Calling FoFCou, ICntrl=  3107 FMM=F I1Cent=   0 AccDes= 0.00D+00.
 FoFJK:  IHMeth= 1 ICntrl=    3107 DoSepK=F KAlg= 0 I1Cent=   0 FoldK=F
 IRaf=       0 NMat=   1 IRICut=       1 DoRegI=T DoRafI=F ISym2E= 0.
 FoFCou: FMM=F IPFlag=           0 FMFlag=      100000 FMFlg1=           0
         NFxFlg=           0 DoJE=F BraDBF=F KetDBF=F FulRan=T
         wScrn=  0.000000 ICntrl=    3107 IOpCl=  0 I1Cent=           0 NGrid=           0
         NMat0=    1 NMatS0=      1 NMatT0=    0 NMatD0=    1 NMtDS0=    0 NMtDT0=    0
 Symmetry not used in FoFCou.
 End of G2Drv F.D. properties file   721 does not exist.
 End of G2Drv F.D. properties file   722 does not exist.
 Leave Link 1110 at Wed Oct 19 22:49:44 2011, MaxMem=  128000000 cpu:     251.7
 (Enter /home/foresman/gdv/l1002.exe)
 Minotr:  Closed shell wavefunction.
          IDoAtm=111111111111111111111111111111
          Direct CPHF calculation.
          Differentiating once with respect to electric field.
                with respect to dipole field.
          Differentiating once with respect to nuclear coordinates.
          Requested convergence is 1.0D-08 RMS, and 1.0D-07 maximum.
          Secondary convergence is 1.0D-12 RMS, and 1.0D-12 maximum.
          NewPWx=T KeepS1=F KeepF1=F KeepIn=T MapXYZ=F SortEE=F KeepMc=T.
          MDV=     127999545 using IRadAn=       2.
 Generate precomputed XC quadrature information.
 Keep R1 ints in memory in canonical form, NReq=67619516.
 FoFCou: FMM=F IPFlag=           0 FMFlag=           0 FMFlg1=           0
         NFxFlg=           0 DoJE=F BraDBF=F KetDBF=F FulRan=T
         wScrn=  0.000000 ICntrl=     600 IOpCl=  0 I1Cent=           0 NGrid=           0
         NMat0=    1 NMatS0=  11476 NMatT0=    0 NMatD0=    1 NMtDS0=    0 NMtDT0=    0
 Symmetry not used in FoFCou.
          Solving linear equations simultaneously, MaxMat=       0.
          There are    93 degrees of freedom in the 1st order CPHF.  IDoFFX=5 NUNeed=    93.
     90 vectors produced by pass  0 Test12= 5.48D-15 1.08D-09 XBig12= 7.75D+01 3.89D+00.
 AX will form    90 AO Fock derivatives at one time.
     90 vectors produced by pass  1 Test12= 5.48D-15 1.08D-09 XBig12= 1.11D+01 8.77D-01.
     90 vectors produced by pass  2 Test12= 5.48D-15 1.08D-09 XBig12= 3.97D-02 2.18D-02.
     90 vectors produced by pass  3 Test12= 5.48D-15 1.08D-09 XBig12= 5.52D-05 9.61D-04.
     90 vectors produced by pass  4 Test12= 5.48D-15 1.08D-09 XBig12= 4.20D-08 1.92D-05.
     40 vectors produced by pass  5 Test12= 5.48D-15 1.08D-09 XBig12= 2.37D-11 4.38D-07.
      3 vectors produced by pass  6 Test12= 5.48D-15 1.08D-09 XBig12= 1.01D-14 1.06D-08.
 InvSVY:  IOpt=1 It=  1 EMax= 6.22D-15
 Solved reduced A of dimension   493 with    93 vectors.
 FullF1:  Do perturbations    1 to     3.
 Isotropic polarizability for W=    0.000000      103.79 Bohr**3.
 Dipole-magnetic dipole polarizability for W=    0.000000:
                 1             2             3 
      1   0.393817D+01 -0.132885D+02  0.662473D+01
      2   0.124433D+02  0.156324D+01 -0.202230D+02
      3   0.881694D+01  0.128449D+02 -0.403539D+01
 DQ contribution to OR G for W=    0.000000:
                 1             2             3 
      1   0.446255D+01 -0.225706D+02  0.240962D+02
      2   0.271955D+02 -0.370178D+01 -0.472817D+02
      3   0.929574D+00  0.499513D+02 -0.760763D+00
 Optical Rotation G' tensor for W=    0.000000:
                 1             2             3 
      1  -0.120439D+00  0.789416D+00 -0.732201D+00
      2   0.789416D+00 -0.974058D+00  0.217824D+01
      3  -0.732201D+00  0.217824D+01  0.256051D+01
 OR G Eigenvalues:    -2.4654     0.3041     3.6273  Iso=    -0.4887
 Eigenvectors:
   (1)  -0.403737   0.816504  -0.412695
   (2)   0.910445   0.402918  -0.093523
   (3)  -0.089920   0.413495   0.906055
 w=    0.000000 a.u., Optical Rotation Beta=     -0.4887 au.
 Molar Mass =    187.2382 grams/mole, [Alpha]D (static) =     -100.88 deg.
 AAT (total):
  0.0024 -0.0552  0.1329
  0.0200 -0.0033 -0.3634
 -0.1059  0.3458  0.0004
 -0.0530  0.1225  0.1738
 -0.1420  0.1105  0.2576
 -0.0614 -0.1636 -0.0755
 -0.0017  0.0356 -0.1700
 -0.0204 -0.0304  0.1742
  0.1069 -0.0231  0.0340
  0.0613 -0.1959  0.1073
  0.1663 -0.1124  0.1601
  0.0011 -0.2383  0.0629
  0.0129  0.1075 -0.2920
 -0.1241  0.0566  0.2574
  0.5532 -0.3603 -0.0459
 -0.0342  0.1086 -0.8910
 -0.0065 -0.0947  0.2459
  0.2359  0.0749  0.0762
  0.0211 -0.2151  1.1335
  0.2036  0.0945 -0.0797
 -1.0624 -0.2903 -0.1062
  0.0225  0.0345  0.4940
 -0.0438  0.0528 -0.4014
 -0.1211  0.4391 -0.0616
  0.0004 -0.1178 -0.0863
  0.0681 -0.0147  0.0647
  0.0548 -0.1657  0.0342
 -0.0040  0.0154 -0.0177
 -0.2315 -0.0423 -0.2762
 -0.0863  0.0382 -0.0477
 -0.1035 -0.1232  0.0772
 -0.0596  0.1001  0.5434
 -0.2949 -0.6764  0.0670
  0.0085  0.0489 -0.0446
 -0.0735 -0.0351  0.2980
  0.1101 -0.3365  0.1339
  0.0697 -0.0419  0.0036
  0.5087 -0.0745 -1.1505
  0.4802  1.2066 -0.0323
  0.0643 -0.0772 -0.2232
 -0.1832 -0.0316  0.7379
 -0.1155 -0.6227  0.0294
  0.0094  0.1252  0.0702
  0.0297  0.0120 -0.2614
  0.0209  0.2269 -0.0218
  0.0465  0.0153 -0.2558
 -0.0985  0.0082  0.1875
  0.1872  0.0672 -0.0771
  0.0512 -0.0652  0.0035
  0.1223 -0.1326 -0.0217
 -0.1599 -0.2780  0.0318
 -0.0098  0.0468 -0.1380
  0.0058 -0.0058 -0.2427
 -0.0651  0.2635  0.0148
 -0.0601 -0.0605  0.0528
  0.1903 -0.0700  0.0143
  0.0918 -0.2286  0.1778
  0.0695  0.0215  0.0483
 -0.1984  0.1014  0.1588
 -0.0152 -0.0942 -0.2161
 -0.0041 -0.1116  0.0167
 -0.0541  0.0053 -0.2654
  0.0048  0.2307  0.0006
 -0.0616  0.0410  0.0266
 -0.0431  0.2118  0.0937
 -0.1934 -0.1619 -0.1001
 -0.0518  0.0802 -0.2228
  0.0182 -0.0846  0.1047
  0.2292 -0.0068  0.1608
  0.0087  0.1804 -0.0197
 -0.1804 -0.0730  0.1533
 -0.1743  0.0892  0.0059
 -0.0545 -0.0505 -0.1476
  0.1092 -0.0103 -0.1098
  0.1100 -0.0058  0.1063
 -0.0103 -0.0763  0.0153
  0.1374 -0.0247  0.0054
 -0.0304  0.2826  0.0436
 -0.0254  0.1506 -0.0637
 -0.0568  0.0417  0.1892
  0.0523 -0.1667 -0.0263
  0.0200 -0.0506  0.1108
  0.0194  0.0570 -0.0736
  0.0168  0.1418 -0.1209
 -0.0500  0.1622  0.1717
 -0.1591 -0.0096 -0.0647
 -0.0017  0.0505  0.1226
  0.0379 -0.1436  0.0486
  0.1363 -0.0056 -0.0436
  0.0906  0.1293 -0.1334
 End of Minotr F.D. properties file   721 does not exist.
 End of Minotr F.D. properties file   722 does not exist.
 Leave Link 1002 at Wed Oct 19 22:50:14 2011, MaxMem=  128000000 cpu:     234.9
 (Enter /home/foresman/gdv/l601.exe)
 Copying SCF densities to generalized density rwf, IOpCl= 0 IROHF=0.

 **********************************************************************

            Population analysis using the SCF density.

 **********************************************************************

 Orbital symmetries:
       Occupied  (A) (A) (A) (A) (A) (A) (A) (A) (A) (A) (A) (A)
                 (A) (A) (A) (A) (A) (A) (A) (A) (A) (A) (A) (A)
                 (A) (A) (A) (A) (A) (A) (A) (A) (A) (A) (A) (A)
                 (A) (A) (A) (A) (A) (A) (A) (A) (A) (A) (A) (A)
                 (A) (A) (A)
       Virtual   (A) (A) (A) (A) (A) (A) (A) (A) (A) (A) (A) (A)
                 (A) (A) (A) (A) (A) (A) (A) (A) (A) (A) (A) (A)
                 (A) (A) (A) (A) (A) (A) (A) (A) (A) (A) (A) (A)
                 (A) (A) (A) (A) (A) (A) (A) (A) (A) (A) (A) (A)
                 (A) (A) (A) (A) (A) (A) (A) (A) (A) (A) (A) (A)
                 (A) (A) (A) (A) (A) (A) (A) (A) (A) (A) (A) (A)
                 (A) (A) (A) (A) (A) (A) (A) (A) (A) (A) (A) (A)
                 (A) (A) (A) (A) (A) (A) (A) (A) (A) (A) (A) (A)
                 (A) (A) (A) (A)
 The electronic state is 1-A.
 Alpha  occ. eigenvalues --  -19.05328 -19.03208 -18.99099 -14.27287 -10.25507
 Alpha  occ. eigenvalues --  -10.18591 -10.18334 -10.15682 -10.15583 -10.13339
 Alpha  occ. eigenvalues --  -10.10600 -10.09779 -10.09693  -1.07317  -1.01328
 Alpha  occ. eigenvalues --   -0.98957  -0.93635  -0.80674  -0.77779  -0.74081
 Alpha  occ. eigenvalues --   -0.68621  -0.68215  -0.65491  -0.59735  -0.57955
 Alpha  occ. eigenvalues --   -0.54352  -0.51742  -0.49127  -0.47758  -0.45411
 Alpha  occ. eigenvalues --   -0.44643  -0.44340  -0.43519  -0.41600  -0.41458
 Alpha  occ. eigenvalues --   -0.39943  -0.38729  -0.38653  -0.37897  -0.37225
 Alpha  occ. eigenvalues --   -0.36949  -0.36451  -0.35748  -0.33585  -0.33540
 Alpha  occ. eigenvalues --   -0.31792  -0.31469  -0.26297  -0.26184  -0.23989
 Alpha  occ. eigenvalues --   -0.22295
 Alpha virt. eigenvalues --    0.06340   0.08064   0.10920   0.11988   0.13359
 Alpha virt. eigenvalues --    0.13812   0.15899   0.16448   0.16889   0.17197
 Alpha virt. eigenvalues --    0.17962   0.18252   0.18886   0.19649   0.19960
 Alpha virt. eigenvalues --    0.20796   0.21281   0.22087   0.22300   0.22893
 Alpha virt. eigenvalues --    0.24137   0.24322   0.25157   0.25800   0.26615
 Alpha virt. eigenvalues --    0.28650   0.29200   0.29533   0.30118   0.42694
 Alpha virt. eigenvalues --    0.49287   0.65423   0.66046   0.66629   0.68183
 Alpha virt. eigenvalues --    0.68573   0.69598   0.70338   0.71951   0.73488
 Alpha virt. eigenvalues --    0.74375   0.75912   0.76083   0.76671   0.77822
 Alpha virt. eigenvalues --    0.80809   0.82862   0.83410   0.86600   0.87985
 Alpha virt. eigenvalues --    0.89865   0.91668   0.93458   0.95966   0.97118
 Alpha virt. eigenvalues --    0.97901   1.00548   1.01796   1.02325   1.04937
 Alpha virt. eigenvalues --    1.05159   1.06888   1.07732   1.08786   1.08902
 Alpha virt. eigenvalues --    1.10074   1.10173   1.11256   1.11705   1.12682
 Alpha virt. eigenvalues --    1.14144   1.16500   1.16820   1.19175   1.23567
 Alpha virt. eigenvalues --    1.29160   1.44925   1.53480   1.55391   1.56608
 Alpha virt. eigenvalues --    1.61238   1.64624   1.65907   1.70666   1.72779
 Alpha virt. eigenvalues --    1.73816   1.76478   1.77802   1.92497   1.99215
 Alpha virt. eigenvalues --    1.99355   2.03577   2.13031   2.14691   2.27405
 Alpha virt. eigenvalues --    2.35368   2.84707   3.09131   3.31695   3.41289
          Condensed to atoms (all electrons):
              1          2          3          4          5          6
     1  C    5.282200   0.248934   0.289886   0.249268   0.197606  -0.050330
     2  C    0.248934   5.476674  -0.082246  -0.084917  -0.036369  -0.007823
     3  C    0.289886  -0.082246   5.353446  -0.081648  -0.039154   0.003876
     4  C    0.249268  -0.084917  -0.081648   5.474844  -0.036222  -0.008064
     5  O    0.197606  -0.036369  -0.039154  -0.036222   8.329633   0.228810
     6  C   -0.050330  -0.007823   0.003876  -0.008064   0.228810   4.281966
     7  O    0.001390  -0.009711   0.000064  -0.009735  -0.045597   0.471539
     8  N    0.002833  -0.000284  -0.000045  -0.000296  -0.079138   0.200823
     9  C   -0.000072   0.000003   0.000001   0.000003   0.001510  -0.049208
    10  C    0.000001   0.000000   0.000000   0.000000  -0.000034   0.005928
    11  C   -0.000004   0.000000   0.000000   0.000000   0.000304   0.003203
    12  C   -0.000139   0.000029  -0.000045   0.000028   0.011143  -0.029377
    13  O    0.000000   0.000000   0.000000   0.000000   0.000000  -0.000084
    14  H    0.000000   0.000000   0.000000   0.000000   0.000000   0.000006
    15  H   -0.035747   0.339380  -0.000462   0.000927   0.001573   0.000338
    16  H   -0.036500   0.342591   0.003586  -0.004082  -0.003549   0.001966
    17  H   -0.040223   0.357789  -0.003138   0.004368   0.001090   0.000450
    18  H   -0.044596   0.001241   0.350196   0.001178   0.001911  -0.000040
    19  H   -0.038453  -0.003595   0.360094   0.004556   0.001992  -0.000008
    20  H   -0.038298   0.004546   0.360451  -0.003559   0.002016  -0.000003
    21  H   -0.035791   0.000877  -0.000461   0.340113   0.001582   0.000335
    22  H   -0.040151   0.004346  -0.003167   0.358448   0.001054   0.000476
    23  H   -0.036578  -0.004108   0.003589   0.342974  -0.003633   0.001919
    24  H    0.000001   0.000000   0.000000  -0.000001  -0.000006  -0.000875
    25  H    0.000001  -0.000001   0.000000   0.000001   0.000080   0.001479
    26  H    0.000000   0.000000   0.000000   0.000000  -0.000001  -0.000029
    27  H    0.000000   0.000000   0.000000   0.000000   0.000000  -0.000039
    28  H    0.000000   0.000000   0.000000   0.000000   0.000000  -0.000043
    29  H   -0.000005   0.000004   0.000008  -0.000009   0.001794  -0.001486
    30  H   -0.000025  -0.000012   0.000011   0.000006   0.002661  -0.002810
              7          8          9         10         11         12
     1  C    0.001390   0.002833  -0.000072   0.000001  -0.000004  -0.000139
     2  C   -0.009711  -0.000284   0.000003   0.000000   0.000000   0.000029
     3  C    0.000064  -0.000045   0.000001   0.000000   0.000000  -0.000045
     4  C   -0.009735  -0.000296   0.000003   0.000000   0.000000   0.000028
     5  O   -0.045597  -0.079138   0.001510  -0.000034   0.000304   0.011143
     6  C    0.471539   0.200823  -0.049208   0.005928   0.003203  -0.029377
     7  O    8.143477  -0.069049   0.000316   0.000158  -0.000027   0.001164
     8  N   -0.069049   7.400812   0.248917  -0.064420  -0.051369   0.240688
     9  C    0.000316   0.248917   5.212054   0.247215  -0.095705  -0.081271
    10  C    0.000158  -0.064420   0.247215   5.620570   0.183969  -0.088477
    11  C   -0.000027  -0.051369  -0.095705   0.183969   5.352743   0.220827
    12  C    0.001164   0.240688  -0.081271  -0.088477   0.220827   5.222307
    13  O    0.000000  -0.000653   0.005906  -0.051739   0.238505  -0.045563
    14  H    0.000000  -0.000038  -0.000496  -0.002181  -0.047354   0.006719
    15  H    0.000089   0.000001   0.000000   0.000000   0.000000   0.000000
    16  H    0.024088   0.000142   0.000004   0.000000   0.000000  -0.000009
    17  H    0.000030  -0.000008   0.000000   0.000000   0.000000   0.000001
    18  H    0.000002   0.000000   0.000000   0.000000   0.000000   0.000001
    19  H    0.000001  -0.000006   0.000000   0.000000   0.000000   0.000015
    20  H    0.000001  -0.000006   0.000000   0.000000   0.000000   0.000019
    21  H    0.000082   0.000001   0.000000   0.000000   0.000000   0.000000
    22  H    0.000034  -0.000008   0.000000   0.000000   0.000000   0.000002
    23  H    0.023877   0.000137   0.000005   0.000000   0.000000  -0.000010
    24  H    0.000283  -0.042480   0.362194  -0.053483  -0.003241   0.002674
    25  H    0.007819  -0.037681   0.366462  -0.026722   0.004039   0.002511
    26  H    0.000002   0.001901  -0.036163   0.324882  -0.031464   0.002855
    27  H    0.000000   0.002643  -0.034612   0.368083  -0.034964   0.004153
    28  H    0.000000   0.001991   0.005556  -0.057486   0.360244  -0.046310
    29  H    0.000009  -0.035465   0.002053   0.005618  -0.039205   0.356843
    30  H    0.000014  -0.041017   0.004114   0.000286  -0.035381   0.347908
             13         14         15         16         17         18
     1  C    0.000000   0.000000  -0.035747  -0.036500  -0.040223  -0.044596
     2  C    0.000000   0.000000   0.339380   0.342591   0.357789   0.001241
     3  C    0.000000   0.000000  -0.000462   0.003586  -0.003138   0.350196
     4  C    0.000000   0.000000   0.000927  -0.004082   0.004368   0.001178
     5  O    0.000000   0.000000   0.001573  -0.003549   0.001090   0.001911
     6  C   -0.000084   0.000006   0.000338   0.001966   0.000450  -0.000040
     7  O    0.000000   0.000000   0.000089   0.024088   0.000030   0.000002
     8  N   -0.000653  -0.000038   0.000001   0.000142  -0.000008   0.000000
     9  C    0.005906  -0.000496   0.000000   0.000004   0.000000   0.000000
    10  C   -0.051739  -0.002181   0.000000   0.000000   0.000000   0.000000
    11  C    0.238505  -0.047354   0.000000   0.000000   0.000000   0.000000
    12  C   -0.045563   0.006719   0.000000  -0.000009   0.000001   0.000001
    13  O    8.169744   0.241456   0.000000   0.000000   0.000000   0.000000
    14  H    0.241456   0.467504   0.000000   0.000000   0.000000   0.000000
    15  H    0.000000   0.000000   0.556118  -0.020572  -0.024819   0.001681
    16  H    0.000000   0.000000  -0.020572   0.484079  -0.023461   0.000012
    17  H    0.000000   0.000000  -0.024819  -0.023461   0.537896   0.000124
    18  H    0.000000   0.000000   0.001681   0.000012   0.000124   0.550825
    19  H    0.000000   0.000000   0.000166  -0.000046   0.003763  -0.024093
    20  H    0.000000   0.000000  -0.000082  -0.000085  -0.000051  -0.023887
    21  H    0.000000   0.000000   0.001150   0.000217  -0.000070   0.001649
    22  H    0.000000   0.000000  -0.000071   0.000010  -0.000099   0.000127
    23  H    0.000000   0.000000   0.000217   0.002942   0.000009   0.000009
    24  H    0.008228   0.000178   0.000000   0.000000   0.000000   0.000000
    25  H    0.000092  -0.000018   0.000000   0.000007   0.000000   0.000000
    26  H    0.001873   0.000032   0.000000   0.000000   0.000000   0.000000
    27  H   -0.001752   0.003808   0.000000   0.000000   0.000000   0.000000
    28  H   -0.031720  -0.002453   0.000000   0.000000   0.000000   0.000000
    29  H    0.004828  -0.000151   0.000000   0.000000   0.000000   0.000000
    30  H    0.001625  -0.000178   0.000000   0.000004   0.000015   0.000000
             19         20         21         22         23         24
     1  C   -0.038453  -0.038298  -0.035791  -0.040151  -0.036578   0.000001
     2  C   -0.003595   0.004546   0.000877   0.004346  -0.004108   0.000000
     3  C    0.360094   0.360451  -0.000461  -0.003167   0.003589   0.000000
     4  C    0.004556  -0.003559   0.340113   0.358448   0.342974  -0.000001
     5  O    0.001992   0.002016   0.001582   0.001054  -0.003633  -0.000006
     6  C   -0.000008  -0.000003   0.000335   0.000476   0.001919  -0.000875
     7  O    0.000001   0.000001   0.000082   0.000034   0.023877   0.000283
     8  N   -0.000006  -0.000006   0.000001  -0.000008   0.000137  -0.042480
     9  C    0.000000   0.000000   0.000000   0.000000   0.000005   0.362194
    10  C    0.000000   0.000000   0.000000   0.000000   0.000000  -0.053483
    11  C    0.000000   0.000000   0.000000   0.000000   0.000000  -0.003241
    12  C    0.000015   0.000019   0.000000   0.000002  -0.000010   0.002674
    13  O    0.000000   0.000000   0.000000   0.000000   0.000000   0.008228
    14  H    0.000000   0.000000   0.000000   0.000000   0.000000   0.000178
    15  H    0.000166  -0.000082   0.001150  -0.000071   0.000217   0.000000
    16  H   -0.000046  -0.000085   0.000217   0.000010   0.002942   0.000000
    17  H    0.003763  -0.000051  -0.000070  -0.000099   0.000009   0.000000
    18  H   -0.024093  -0.023887   0.001649   0.000127   0.000009   0.000000
    19  H    0.527014  -0.025964  -0.000083  -0.000049  -0.000085   0.000000
    20  H   -0.025964   0.523743   0.000158   0.003749  -0.000046   0.000000
    21  H   -0.000083   0.000158   0.555788  -0.024686  -0.020864   0.000000
    22  H   -0.000049   0.003749  -0.024686   0.533499  -0.023262   0.000000
    23  H   -0.000085  -0.000046  -0.020864  -0.023262   0.483802   0.000002
    24  H    0.000000   0.000000   0.000000   0.000000   0.000002   0.536053
    25  H    0.000000   0.000000   0.000000   0.000000  -0.000006  -0.032046
    26  H    0.000000   0.000000   0.000000   0.000000   0.000000   0.003986
    27  H    0.000000   0.000000   0.000000   0.000000   0.000000  -0.000399
    28  H    0.000000   0.000000   0.000000   0.000000   0.000000   0.000123
    29  H   -0.000009   0.000053   0.000000   0.000011   0.000003   0.000488
    30  H    0.000072  -0.000012   0.000000  -0.000001  -0.000001  -0.000213
             25         26         27         28         29         30
     1  C    0.000001   0.000000   0.000000   0.000000  -0.000005  -0.000025
     2  C   -0.000001   0.000000   0.000000   0.000000   0.000004  -0.000012
     3  C    0.000000   0.000000   0.000000   0.000000   0.000008   0.000011
     4  C    0.000001   0.000000   0.000000   0.000000  -0.000009   0.000006
     5  O    0.000080  -0.000001   0.000000   0.000000   0.001794   0.002661
     6  C    0.001479  -0.000029  -0.000039  -0.000043  -0.001486  -0.002810
     7  O    0.007819   0.000002   0.000000   0.000000   0.000009   0.000014
     8  N   -0.037681   0.001901   0.002643   0.001991  -0.035465  -0.041017
     9  C    0.366462  -0.036163  -0.034612   0.005556   0.002053   0.004114
    10  C   -0.026722   0.324882   0.368083  -0.057486   0.005618   0.000286
    11  C    0.004039  -0.031464  -0.034964   0.360244  -0.039205  -0.035381
    12  C    0.002511   0.002855   0.004153  -0.046310   0.356843   0.347908
    13  O    0.000092   0.001873  -0.001752  -0.031720   0.004828   0.001625
    14  H   -0.000018   0.000032   0.003808  -0.002453  -0.000151  -0.000178
    15  H    0.000000   0.000000   0.000000   0.000000   0.000000   0.000000
    16  H    0.000007   0.000000   0.000000   0.000000   0.000000   0.000004
    17  H    0.000000   0.000000   0.000000   0.000000   0.000000   0.000015
    18  H    0.000000   0.000000   0.000000   0.000000   0.000000   0.000000
    19  H    0.000000   0.000000   0.000000   0.000000  -0.000009   0.000072
    20  H    0.000000   0.000000   0.000000   0.000000   0.000053  -0.000012
    21  H    0.000000   0.000000   0.000000   0.000000   0.000000   0.000000
    22  H    0.000000   0.000000   0.000000   0.000000   0.000011  -0.000001
    23  H   -0.000006   0.000000   0.000000   0.000000   0.000003  -0.000001
    24  H   -0.032046   0.003986  -0.000399   0.000123   0.000488  -0.000213
    25  H    0.494699  -0.003221  -0.000177  -0.000014  -0.000111   0.000079
    26  H   -0.003221   0.553054  -0.022681   0.001335  -0.000079   0.000131
    27  H   -0.000177  -0.022681   0.528426  -0.001009  -0.000055  -0.000133
    28  H   -0.000014   0.001335  -0.001009   0.583518   0.000641   0.001235
    29  H   -0.000111  -0.000079  -0.000055   0.000641   0.498836  -0.032509
    30  H    0.000079   0.000131  -0.000133   0.001235  -0.032509   0.548439
 Mulliken charges:
              1
     1  C    0.124794
     2  C   -0.547348
     3  C   -0.514843
     4  C   -0.548182
     5  O   -0.541058
     6  C    0.947104
     7  O   -0.540321
     8  N   -0.678924
     9  C   -0.158787
    10  C   -0.412169
    11  C   -0.025121
    12  C   -0.128683
    13  O   -0.540744
    14  H    0.333164
    15  H    0.180112
    16  H    0.228658
    17  H    0.186336
    18  H    0.183660
    19  H    0.194719
    20  H    0.197257
    21  H    0.180004
    22  H    0.189737
    23  H    0.229107
    24  H    0.218532
    25  H    0.222725
    26  H    0.203587
    27  H    0.188706
    28  H    0.184391
    29  H    0.237896
    30  H    0.205692
 Sum of Mulliken charges =   0.00000
 Mulliken charges with hydrogens summed into heavy atoms:
              1
     1  C    0.124794
     2  C    0.047759
     3  C    0.060793
     4  C    0.050665
     5  O   -0.541058
     6  C    0.947104
     7  O   -0.540321
     8  N   -0.678924
     9  C    0.282470
    10  C   -0.019877
    11  C    0.159270
    12  C    0.314905
    13  O   -0.207580
 Sum of Mulliken charges with hydrogens summed into heavy atoms =   0.00000
 APT charges:
              1
     1  C    0.651885
     2  C   -0.107240
     3  C   -0.027534
     4  C   -0.107880
     5  O   -0.966429
     6  C    1.451673
     7  O   -0.792071
     8  N   -0.873167
     9  C    0.325581
    10  C   -0.005543
    11  C    0.449127
    12  C    0.299253
    13  O   -0.497977
    14  H    0.194966
    15  H   -0.002674
    16  H    0.080420
    17  H   -0.000364
    18  H   -0.003024
    19  H    0.007148
    20  H    0.009063
    21  H   -0.002223
    22  H    0.002263
    23  H    0.080458
    24  H   -0.045214
    25  H    0.020934
    26  H   -0.011615
    27  H   -0.019823
    28  H   -0.086101
    29  H    0.001933
    30  H   -0.025823
 Sum of APT charges =   0.00000
 APT charges with hydrogens summed into heavy atoms:
              1
     1  C    0.651885
     2  C   -0.029859
     3  C   -0.014347
     4  C   -0.027383
     5  O   -0.966429
     6  C    1.451673
     7  O   -0.792071
     8  N   -0.873167
     9  C    0.301301
    10  C   -0.036980
    11  C    0.363026
    12  C    0.275362
    13  O   -0.303011
 Sum of APT charges with hydrogens summed into heavy atoms =   0.00000
 Electronic spatial extent (au):  <R**2>=           3108.9174
 Charge=              0.0000 electrons
 Dipole moment (field-independent basis, Debye):
    X=              2.6129    Y=             -1.4245    Z=             -1.6213  Tot=              3.3890
 Quadrupole moment (field-independent basis, Debye-Ang):
   XX=            -59.7937   YY=            -83.8810   ZZ=            -79.5167
   XY=              3.7233   XZ=             -2.1289   YZ=              0.5680
 Traceless Quadrupole moment (field-independent basis, Debye-Ang):
   XX=             14.6034   YY=             -9.4838   ZZ=             -5.1196
   XY=              3.7233   XZ=             -2.1289   YZ=              0.5680
 Octapole moment (field-independent basis, Debye-Ang**2):
  XXX=             71.3804  YYY=             -8.4832  ZZZ=              2.6610  XYY=             10.2181
  XXY=             -1.8999  XXZ=              3.2030  XZZ=              3.6177  YZZ=              0.1755
  YYZ=             -3.1214  XYZ=              6.1301
 Hexadecapole moment (field-independent basis, Debye-Ang**3):
 XXXX=          -2615.1870 YYYY=           -638.9764 ZZZZ=           -345.6698 XXXY=            -41.5904
 XXXZ=             56.2740 YYYX=             -1.9951 YYYZ=             -6.1124 ZZZX=             14.6465
 ZZZY=              2.2978 XXYY=           -622.3735 XXZZ=           -575.1425 YYZZ=           -161.0490
 XXYZ=             10.3297 YYXZ=             -1.5920 ZZXY=             -1.3666
 N-N= 8.794767477363D+02 E-N=-3.228800142511D+03  KE= 6.248554264571D+02
  Exact polarizability: 132.141   0.792  94.331   0.231   1.987  84.899
 Approx polarizability: 154.993  -4.536 142.363   0.603   5.805 119.232
 Calculating spin-rotation constants.
 Leave Link  601 at Wed Oct 19 22:50:18 2011, MaxMem=  128000000 cpu:      32.2
 (Enter /home/foresman/gdv/l701.exe)
 Compute integral second derivatives.
 ... and contract with generalized density number  0.
 Leave Link  701 at Wed Oct 19 22:50:18 2011, MaxMem=  128000000 cpu:       1.3
 (Enter /home/foresman/gdv/l702.exe)
 L702 exits ... SP integral derivatives will be done elsewhere.
 Leave Link  702 at Wed Oct 19 22:50:18 2011, MaxMem=  128000000 cpu:       0.3
 (Enter /home/foresman/gdv/l703.exe)
 Compute integral second derivatives, UseDBF=F ICtDFT=           0.
 Integral derivatives from FoFJK, PRISM(SPDF).
 Calling FoFJK, ICntrl=    100127 FMM=F ISym2X=0 I1Cent= 0 IOpClX= 0 NMat=1 NMatS=1 NMatT=0.
 FoFJK:  IHMeth= 1 ICntrl=  100127 DoSepK=F KAlg= 0 I1Cent=   0 FoldK=F
 IRaf=       0 NMat=   1 IRICut=       1 DoRegI=T DoRafI=F ISym2E= 0.
 FoFCou: FMM=F IPFlag=           0 FMFlag=      100000 FMFlg1=         800
         NFxFlg=           0 DoJE=F BraDBF=F KetDBF=F FulRan=T
         wScrn=  0.000000 ICntrl=  100127 IOpCl=  0 I1Cent=           0 NGrid=           0
         NMat0=    1 NMatS0=      1 NMatT0=    0 NMatD0=    1 NMtDS0=    0 NMtDT0=    0
 Symmetry not used in FoFCou.
 Leave Link  703 at Wed Oct 19 22:50:52 2011, MaxMem=  128000000 cpu:     272.1
 (Enter /home/foresman/gdv/l716.exe)
 Dipole        = 1.02798415D+00-5.60454726D-01-6.37884993D-01
 Polarizability= 1.32140843D+02 7.92215047D-01 9.43306416D+01
                 2.31290805D-01 1.98728468D+00 8.48991079D+01
 AAT           = 2.40142907D-03-5.51603302D-02 1.32894111D-01
                 1.99695577D-02-3.29838476D-03-3.63390977D-01
                -1.05858376D-01 3.45792870D-01 3.60353450D-04
                -5.30223082D-02 1.22487864D-01 1.73767452D-01
                -1.41964008D-01 1.10521636D-01 2.57611286D-01
                -6.14281925D-02-1.63564840D-01-7.54594841D-02
                -1.65031819D-03 3.56189839D-02-1.69979213D-01
                -2.03619973D-02-3.04298194D-02 1.74158586D-01
                 1.06894809D-01-2.30977190D-02 3.39886770D-02
                 6.12665837D-02-1.95898371D-01 1.07310655D-01
                 1.66314668D-01-1.12418543D-01 1.60098497D-01
                 1.05558642D-03-2.38338687D-01 6.29181258D-02
                 1.28991275D-02 1.07459765D-01-2.92010583D-01
                -1.24128863D-01 5.66205017D-02 2.57395823D-01
                 5.53220834D-01-3.60289589D-01-4.59454941D-02
                -3.41855367D-02 1.08584468D-01-8.91005765D-01
                -6.54673863D-03-9.46950011D-02 2.45886833D-01
                 2.35942129D-01 7.49274520D-02 7.62475619D-02
                 2.11216784D-02-2.15100597D-01 1.13353851D+00
                 2.03567119D-01 9.45121186D-02-7.96557399D-02
                -1.06237963D+00-2.90281823D-01-1.06167242D-01
                 2.24590663D-02 3.44675596D-02 4.93999253D-01
                -4.37858380D-02 5.27623764D-02-4.01436530D-01
                -1.21147354D-01 4.39118391D-01-6.16000402D-02
                 3.83117416D-04-1.17815895D-01-8.62520238D-02
                 6.81126674D-02-1.46816823D-02 6.47091068D-02
                 5.48037790D-02-1.65711389D-01 3.42077318D-02
                -4.00236199D-03 1.53995564D-02-1.76568505D-02
                -2.31486604D-01-4.23123545D-02-2.76235278D-01
                -8.62873985D-02 3.82495477D-02-4.76640970D-02
                -1.03463990D-01-1.23177621D-01 7.72092754D-02
                -5.95902741D-02 1.00103196D-01 5.43412862D-01
                -2.94938458D-01-6.76385546D-01 6.70376559D-02
                 8.53258374D-03 4.88787959D-02-4.45948103D-02
                -7.35450159D-02-3.51142149D-02 2.98039063D-01
                 1.10091965D-01-3.36471596D-01 1.33884596D-01
                 6.97056707D-02-4.18896452D-02 3.61914753D-03
                 5.08724458D-01-7.45445822D-02-1.15052423D+00
                 4.80219985D-01 1.20661429D+00-3.22688065D-02
                 6.43275711D-02-7.72119274D-02-2.23213015D-01
                -1.83177180D-01-3.16155760D-02 7.37943407D-01
                -1.15477703D-01-6.22717411D-01 2.94274950D-02
                 9.41485646D-03 1.25155286D-01 7.02226050D-02
                 2.96909014D-02 1.20160999D-02-2.61392869D-01
                 2.08628793D-02 2.26877757D-01-2.18081861D-02
                 4.65053029D-02 1.52651676D-02-2.55805494D-01
                -9.85393386D-02 8.23600502D-03 1.87548952D-01
                 1.87193605D-01 6.72302176D-02-7.71124272D-02
                 5.11551090D-02-6.51578982D-02 3.48769060D-03
                 1.22261642D-01-1.32553627D-01-2.16515937D-02
                -1.59856659D-01-2.77951080D-01 3.17622051D-02
                -9.82962327D-03 4.68014057D-02-1.38019101D-01
                 5.79181909D-03-5.84548062D-03-2.42742573D-01
                -6.51316929D-02 2.63492125D-01 1.47620599D-02
                -6.01102805D-02-6.04806765D-02 5.28241262D-02
                 1.90254683D-01-7.00352107D-02 1.42759198D-02
                 9.18351758D-02-2.28576638D-01 1.77818859D-01
                 6.95264327D-02 2.15135769D-02 4.83355057D-02
                -1.98439126D-01 1.01427308D-01 1.58801065D-01
                -1.52161022D-02-9.41892667D-02-2.16124172D-01
                -4.07261909D-03-1.11574061D-01 1.67257087D-02
                -5.40628483D-02 5.27127583D-03-2.65407864D-01
                 4.82593213D-03 2.30669535D-01 6.16564869D-04
                -6.15720065D-02 4.09938022D-02 2.65911188D-02
                -4.30809117D-02 2.11786095D-01 9.36963292D-02
                -1.93412568D-01-1.61881987D-01-1.00099254D-01
                -5.17602366D-02 8.01615931D-02-2.22812385D-01
                 1.82349243D-02-8.46421300D-02 1.04736812D-01
                 2.29193518D-01-6.77029692D-03 1.60769961D-01
                 8.74759747D-03 1.80420811D-01-1.96528352D-02
                -1.80416322D-01-7.29658393D-02 1.53324061D-01
                -1.74258032D-01 8.92380313D-02 5.94302831D-03
                -5.44822113D-02-5.05154637D-02-1.47622549D-01
                 1.09191756D-01-1.03272811D-02-1.09822815D-01
                 1.10011230D-01-5.84483810D-03 1.06324922D-01
                -1.03397152D-02-7.62762103D-02 1.53098508D-02
                 1.37360005D-01-2.47170980D-02 5.41011545D-03
                -3.04251942D-02 2.82625674D-01 4.36033795D-02
                -2.54002009D-02 1.50611026D-01-6.37085992D-02
                -5.68075684D-02 4.16727855D-02 1.89223590D-01
[...]
 0.00002049,-0.00007181,-0.00001821,0.00005345,0.00012248,0.00002486,0.
 00001769,0.00003521,0.00001653,0.00004029,-0.00006268,0.00000056,-0.00
 001736,0.00004264,0.00000389,-0.00000534,0.00002624,-0.00000578,-0.000
 02343,-0.00004056,0.00010328,0.00005190,-0.00000032,-0.00000005,0.0000
 2556,0.00004862,-0.00012608,-0.01307956,0.12291069,-0.00006258,0.00000
 481,-0.00016954,-0.00001047,-0.00003662,0.00000581,0.00000621,0.000010
 59,-0.00000049,0.00000310,0.00002068,0.00000166,-0.00013372,0.00009377
 ,-0.00044614,-0.00061545,0.00022261,0.00031672,0.00004138,-0.00045998,
 0.00018989,-0.00015062,0.00410347,0.01305595,0.01574737,-0.10723920,-0
 .25302410,0.00205628,-0.00862608,-0.02127768,-0.00060611,-0.00086681,-
 0.00163439,0.00053798,0.00005746,-0.00052902,-0.00235647,0.00041379,0.
 00125439,0.00040045,0.00004059,-0.00007242,0.00000124,-0.00001697,-0.0
 0000241,0.00002758,0.00003072,0.00000208,-0.00000418,0.00000931,0.0000
 0682,-0.00000367,-0.00000100,0.00000420,-0.00000558,0.00000427,0.00000
 528,0.00000510,0.00000349,0.00000037,0.00000282,0.00000084,-0.00000587
 ,0.00000679,-0.00000060,0.00000416,0.00000173,0.00001532,-0.00002684,-
 0.01905731,0.11428939,0.27313568,-0.00003375,-0.00008337,0.00005911,0.
 00001521,0.00001891,-0.00001684,0.00000843,0.00002540,-0.00000559,0.00
 000623,0.00002265,0.00000337,0.00010636,0.00042689,-0.00024449,-0.0033
 7751,-0.00184092,0.00064655,0.00204697,-0.00155825,0.00061176,-0.01759
 297,0.00259077,-0.00340606,-0.26735337,-0.05434379,-0.09249877,-0.0110
 0845,-0.00206648,-0.00518658,-0.00123203,0.00010419,0.00150309,-0.0003
 8546,0.00030288,-0.00195071,0.00062663,-0.00000765,-0.00011905,-0.0000
 1717,-0.00002675,0.00001021,0.00001658,0.,0.00001841,0.00002349,0.0000
 0804,-0.00000808,-0.00001726,0.00000945,0.00000599,-0.00000220,0.00001
 504,-0.00000192,-0.00000318,-0.00000821,-0.00000347,0.00001061,-0.0000
 1107,0.00001427,0.00000195,0.00001144,-0.00001435,-0.00000210,-0.00000
 530,0.00001300,-0.00000282,-0.00001791,0.00000638,0.00414346,-0.000281
 89,0.00136460,0.29500646,-0.00005729,-0.00019423,-0.00013762,0.0000183
 3,-0.00006008,0.00000613,0.00001039,0.00001306,-0.00000317,0.00005720,
 0.00005423,-0.00005543,-0.00044931,-0.00036352,-0.00041688,0.00672208,
 0.00323232,0.00008414,-0.00400543,-0.00027571,-0.00106153,0.03220360,-
 0.00059484,0.01140717,-0.06264466,-0.06253830,-0.02928073,-0.01540189,
 -0.00278616,-0.00852509,-0.00132611,-0.00236848,0.00264584,0.00119400,
 -0.00325080,0.00228188,-0.00029939,0.00044116,0.00020964,0.00016452,0.
 00010516,0.00004786,-0.00002089,0.00000197,-0.00002338,-0.00002098,-0.
 00005170,-0.00000727,0.00000446,-0.00000381,0.00000083,-0.00000652,0.0
 0000480,0.00000118,-0.00000048,0.00000062,0.00000835,-0.00000508,0.000
 00433,-0.00000874,-0.00002325,0.00002472,-0.00000535,-0.00001234,0.000
 00192,-0.00001117,-0.00006298,-0.00003749,0.00009273,-0.01422264,-0.00
 246647,-0.00485587,0.05648508,0.07007173,0.00000782,0.00015030,0.00003
 220,-0.00002963,-0.00000096,-0.00000425,-0.00000810,-0.00000896,-0.000
 00523,-0.00003642,-0.00002398,0.00000911,0.00061722,-0.00000919,-0.000
 04018,-0.00415711,-0.00101808,0.00154728,0.00273140,-0.00097207,-0.000
 61115,-0.00299886,0.00295389,-0.00046074,-0.09256361,-0.02686030,-0.09
 085875,0.02172098,0.00317048,0.00859879,0.00353307,0.00143737,-0.00359
 641,0.00134284,0.00059957,-0.00127277,-0.00135704,0.00037666,0.0008832
 0,0.00019834,-0.00005784,-0.00005651,0.00000502,-0.00000241,-0.0000025
 0,0.00001606,0.00002546,0.00003630,0.00001882,-0.00001192,-0.00001055,
 0.00000130,-0.00000614,0.00000194,0.00000600,0.00000135,-0.00000210,-0
 .00000136,0.00000080,-0.00000171,0.00001050,-0.00001387,0.00000587,0.0
 0000801,-0.00000405,0.00000038,0.00001573,0.00001445,-0.00003290,-0.02
 812531,-0.00737219,-0.01039836,0.09874376,0.02849519,0.09434989,0.0000
 3154,0.00008113,0.00000295,-0.00000542,-0.00001466,-0.00000376,-0.0000
 0615,-0.00001392,-0.00000448,-0.00000982,-0.00001266,0.,0.00006810,-0.
 00017927,0.00002722,0.00008064,0.00024800,-0.00004627,-0.00006384,-0.0
 0006517,-0.00008876,-0.00003565,0.00058299,-0.00129038,-0.00052263,0.0
 0799065,0.02595317,-0.05157512,-0.00666710,-0.02562261,-0.00101661,-0.
 01402851,-0.03063980,0.00057653,-0.00026599,0.00040673,-0.00660937,0.0
 0152198,-0.00607785,-0.00001694,0.00076299,0.00059248,-0.00000196,-0.0
 0000485,-0.00000302,0.00000479,0.00000934,0.00001438,0.00000854,-0.000
 00129,-0.00000153,0.00000253,-0.00000597,0.00000189,0.00000078,0.00000
 410,0.00000088,-0.00000320,0.00000299,-0.00000146,-0.00000038,-0.00000
 696,0.00000367,-0.00000265,0.00000343,-0.00000453,0.00000506,0.0000102
 1,-0.00000144,-0.00205530,-0.00345146,0.00286189,0.00070470,0.00099105
 ,-0.00050283,0.05948390,-0.00000296,-0.00011277,0.00004782,0.00000422,
 0.00002364,0.00000004,0.00000072,0.00000838,-0.00000193,0.00000356,0.0
 0001801,-0.00000867,-0.00005647,0.00017564,-0.00003180,-0.00044127,-0.
 00043035,0.00012630,0.00027509,-0.00000877,-0.00005618,-0.00058457,0.0
 0155502,-0.00117387,0.00162925,0.00484468,0.01787305,-0.00734124,-0.08
 531892,-0.08553063,0.00034208,0.00005522,0.00523963,0.00017401,0.00030
 920,0.00017351,0.00034707,0.00093587,0.00067393,0.00061439,0.00046364,
 0.00030043,0.00000348,0.00001363,-0.00000352,-0.00001209,-0.00001670,0
 .00000217,0.00000294,-0.00001397,-0.00000788,-0.00000026,0.00000800,-0
 .00000250,0.00000526,-0.00000827,-0.00000203,0.00000035,-0.00000466,0.
 00000098,0.00000233,0.00000659,-0.00000703,-0.00000408,-0.00000173,0.0
 0000019,-0.00000276,-0.00000816,0.00001334,-0.00147436,-0.00117960,0.0
 0233370,0.00058378,0.00096399,-0.00055487,0.01082260,0.08811067,-0.000
 03339,-0.00004166,-0.00003143,0.00001100,0.00000685,-0.00000640,0.0000
 0846,0.00001312,-0.00000593,0.00000403,0.00000815,0.00000490,-0.000028
 01,0.00019904,0.00004238,0.00005342,0.00005239,-0.00041701,-0.00010323
 ,0.00010906,0.00011661,0.00006405,-0.00010987,0.00225119,-0.00083971,-
 0.00784654,-0.02051732,-0.02573014,-0.08439067,-0.27707957,0.00145804,
 -0.00432418,-0.01005064,-0.00002497,-0.00021143,-0.00037454,-0.0025284
 1,0.00051944,-0.00013802,0.00023723,0.00030180,0.00013373,0.00000096,-
 0.00000207,0.00001017,0.00000284,-0.00000397,-0.00001705,-0.00001252,0
 .00001507,0.00001473,-0.00000466,0.00000338,0.00000114,-0.00000757,0.0
 0000320,0.00000523,0.00000657,-0.00000205,0.00000384,0.00000055,0.0000
 0682,-0.00000042,0.00000909,-0.00000495,0.00001011,-0.00000758,-0.0000
 0763,-0.00000514,0.00187128,0.00262872,-0.00112816,0.00016395,-0.00020
 485,0.00133650,0.02613043,0.09246173,0.30388218,0.00011419,0.00010671,
 -0.00010281,-0.00000602,-0.00002597,0.00000973,-0.00002602,-0.00004839
 ,0.00000992,-0.00000339,-0.00001020,-0.00000345,0.00019304,-0.00058859
 ,0.00003430,0.00101127,0.00035053,0.00034325,-0.00005269,-0.00009145,0
 .00002549,-0.00293635,-0.00360197,0.00327514,0.00538443,-0.02059963,-0
 .00262319,-0.05768190,0.04958544,0.00096094,-0.00594108,0.03333083,0.0
 0006310,-0.00575043,0.00004809,-0.00289333,0.00289554,-0.00098745,0.00
 310250,-0.00078491,-0.00098146,-0.00106826,-0.00000365,-0.00001099,-0.
 00000450,0.00001469,0.00002187,0.00000582,-0.00000030,0.00000278,-0.00
 000157,0.00002166,-0.00000691,0.00000077,-0.00000298,-0.00000412,-0.00
 000848,0.00000397,-0.00000197,0.00001279,0.00000151,-0.00000564,0.0000
 0517,0.00000233,0.00000126,0.00000577,0.00000848,0.00001997,-0.0000206
 7,0.00098196,0.00097800,-0.00039420,-0.00030242,0.00003082,-0.00031916
 ,0.00029450,-0.00467494,0.00028986,0.06171434,0.00007565,0.00044148,-0
 .00018786,-0.00003317,-0.00010206,0.00002553,-0.00002674,-0.00006235,0
 .00001553,-0.00002613,-0.00006823,0.00001907,0.00017395,-0.00101308,0.
 00013832,0.00111279,0.00138071,0.00011326,-0.00055975,-0.00031477,0.00
 009422,-0.00152042,-0.00230132,0.00261344,0.00559133,-0.01314434,-0.00
 380151,0.04748222,-0.30406377,-0.00548293,-0.00089844,-0.00660322,-0.0
 0178839,-0.00032586,0.00083139,-0.00026777,-0.00101110,0.00218769,0.00
 034323,0.00086369,0.00042573,0.00075027,-0.00001378,-0.00004242,-0.000
 01291,0.00003909,0.00006051,0.00001902,0.00000781,0.00001832,0.0000054
 4,0.00001484,-0.00003041,0.00000529,-0.00000720,0.00001929,0.00000069,
 -0.00000376,0.00001717,-0.00000395,-0.00000434,-0.00002893,0.00002479,
 0.00000997,0.00001012,-0.00000693,0.00002116,0.00004470,-0.00005294,0.
 00007309,0.00094308,0.00048404,-0.00041472,-0.00032953,0.00021157,0.00
 210474,-0.01061250,0.00029847,-0.05361477,0.33248449,-0.00007038,-0.00
 011830,0.00006324,0.00001240,0.00003780,-0.00002286,0.00002398,0.00004
 255,-0.00001479,0.00000827,0.00002870,0.00000294,0.00004858,0.00070771
 ,-0.00006581,-0.00102215,0.00011331,-0.00038314,0.00015658,0.00002918,
 0.00003976,0.00162362,0.00399094,-0.00145605,-0.00531113,0.01758660,0.
 00019196,0.00266866,-0.00714741,-0.04983180,-0.00257903,0.00910964,-0.
 00211256,-0.00085621,0.00123952,-0.00115695,0.00120612,0.00080024,0.00
 097274,-0.00117593,-0.00043513,-0.00030809,0.00000934,0.00001078,0.000
 01461,-0.00000395,-0.00001147,-0.00000888,-0.00000784,0.00000497,0.000
 00584,-0.00001489,0.00001306,0.00000016,-0.00000139,-0.00000233,0.0000
 0234,0.00000151,-0.00000542,0.00000184,0.00000398,0.00000699,-0.000012
 10,-0.00000391,-0.00000204,0.00000296,-0.00000332,-0.00000899,0.000009
 74,-0.00066650,-0.00044274,0.00051002,0.00028903,-0.00002912,0.0000885
 7,0.00673718,-0.03201291,0.00094566,-0.00094021,0.00619522,0.05240074,
 0.00003986,0.00029754,-0.00005670,-0.00002648,-0.00005235,0.00001707,-
 0.00001846,-0.00003729,0.00001427,-0.00002439,-0.00005791,0.00001673,0
 .00030245,-0.00065018,0.00006498,0.00008535,0.00085726,-0.00012927,-0.
 00003243,-0.00048181,0.00013735,-0.00015498,0.00058132,-0.00027947,-0.
 00508537,0.00152473,-0.00307443,-0.01976080,-0.00904490,0.01815252,-0.
 19176195,-0.04198278,0.11907754,0.00053794,0.00189268,-0.00140791,0.01
 058110,0.00205730,-0.00656125,0.00010014,0.00076733,0.00043024,-0.0000
 0399,-0.00002704,-0.00000690,0.00003091,0.00004638,0.00001639,0.000005
 40,0.00000762,-0.00000457,0.00001136,-0.00001809,0.00000149,-0.0000025
 0,0.00000641,-0.00000787,-0.00000323,0.00000954,0.00000259,-0.00000066
 ,-0.00002322,0.00001755,0.00000333,0.00000895,-0.00000454,0.00002432,0
 .00003263,-0.00004065,0.00002894,-0.00001269,0.00014737,-0.00047415,-0
 .00074197,0.00105958,0.00071673,-0.00038951,-0.00058442,0.00036973,0.0
 0079092,0.00013057,0.20426718,0.00001489,0.00035371,-0.00007662,-0.000
 03118,-0.00007012,0.00002023,-0.00001899,-0.00003633,0.00001633,-0.000
 02778,-0.00006752,0.00001991,0.00017266,-0.00054892,0.00003578,-0.0007
 9003,0.00183025,-0.00014834,-0.00093199,-0.00081053,0.00021335,-0.0015
 4806,-0.00593969,0.00241983,0.00179666,-0.00190860,0.00118346,0.008859
 34,0.00345653,-0.00550719,-0.04016562,-0.06581860,0.03916417,-0.023539
 88,-0.00460560,0.01708337,0.01057277,0.00333846,-0.01844413,0.00100709
 ,0.00124910,0.00001794,-0.00000774,-0.00003028,-0.00001113,0.00003398,
 0.00005971,0.00003049,0.00001107,0.00000674,-0.00000282,0.00001115,-0.
 00002067,0.00000090,-0.00000538,0.00001004,-0.00000634,-0.00000572,0.0
 0001397,-0.00000013,-0.00000321,-0.00002383,0.00002216,0.00001033,0.00
 000723,-0.00000706,0.00002074,0.00003675,-0.00005779,-0.00028850,0.000
 16546,0.00002005,-0.00003778,0.00025023,-0.00039753,-0.00062544,0.0002
 3955,0.00006598,-0.00073807,0.00010320,-0.00042888,0.04598616,0.068598
 92,0.00000814,-0.00011770,0.00000172,0.00000440,0.00002144,-0.00000475
 ,0.00000186,0.00000867,-0.00000752,-0.00000308,0.00002220,-0.00000650,
 -0.00000569,0.00019987,0.00000792,-0.00016647,-0.00048614,0.00010521,0
 .00019164,0.00000741,-0.00003816,-0.00105727,0.00122077,0.00047664,-0.
 00304307,0.00033948,-0.00046779,-0.00967300,-0.00226916,0.00890682,0.1
 1840687,0.03800734,-0.14558546,0.00602410,0.00030255,-0.00324223,0.015
 85183,-0.00246879,-0.03297912,0.00018818,0.00048596,0.00090199,0.00000
 464,0.00000731,0.00000331,-0.00000845,-0.00001449,-0.00000882,-0.00000
 274,-0.00000127,0.00000644,-0.00000397,0.00000542,0.00000078,0.0000022
 6,0.00000076,0.00001072,0.00000788,-0.00000591,-0.00000458,0.00000423,
 0.00001092,-0.00000426,0.00000673,-0.00000895,0.00000831,-0.00001184,-
 0.00001271,0.00001053,-0.00062152,-0.00005737,0.00018679,-0.00025558,-
 0.00041475,0.00051224,0.00143712,-0.00001248,0.00082138,0.00031052,0.0
 0022139,0.00003504,-0.12712995,-0.03495920,0.16951580,0.00019862,0.000
 30650,-0.00000826,-0.00003761,0.00003056,-0.00000140,-0.00005446,-0.00
 008553,-0.00001184,-0.00010627,-0.00009753,0.00001513,0.00212415,-0.00
 126558,0.00056486,-0.00028414,0.00663005,-0.00313941,-0.00147596,-0.00
 107027,0.00141399,-0.03040501,0.00331109,-0.01854457,-0.00176618,-0.00
 267102,-0.00210391,-0.00059778,-0.00145531,0.00020045,0.00322512,0.000
 18897,0.00390435,-0.12130828,0.02904078,-0.11699719,-0.00028191,0.0004
 8795,-0.00030491,0.00012302,-0.00046616,0.00049149,0.00002769,-0.00002
 974,0.00000980,0.00006582,0.00009906,0.00002782,0.00000196,0.00000752,
 0.00000146,0.00003407,-0.00000751,0.00001072,-0.00000095,0.00000124,0.
 00000158,0.00004553,-0.00002236,0.00003195,0.00003730,-0.00001571,0.00
 004727,0.00004080,-0.00001826,0.00005496,0.00004086,0.00010019,-0.0001
 3813,-0.00005069,0.00020419,0.00017047,-0.00080939,0.00113898,-0.00008
 238,-0.00016693,-0.00000376,-0.00011046,0.00047909,0.00006073,-0.00009
 617,-0.00007321,0.00051739,-0.00010841,0.14396384,0.00000497,-0.000260
 93,0.00020360,0.00004168,0.00012715,-0.00007643,-0.00003326,-0.0000082
 3,-0.00008307,-0.00002522,-0.00000315,0.00000475,0.00102993,-0.0000760
 2,0.00007539,-0.00058512,0.00245497,-0.00116992,-0.00060191,-0.0003761
 7,0.00069160,-0.00595681,0.00023685,-0.00334553,-0.00045570,-0.0006955
 2,0.00003196,-0.00015679,-0.00545034,-0.00007258,0.01971494,-0.0107698
 0,0.02774920,0.02981478,-0.05630451,0.04190117,-0.00032010,0.00275159,
 0.00105848,-0.00044517,0.00144761,-0.00061512,0.00003598,0.00002863,0.
 00004307,0.00001842,0.00002629,0.00000393,-0.00001632,0.00000587,0.000
 00511,0.00003853,0.00004362,0.00001523,-0.00001617,-0.00002893,-0.0000
 2633,0.00004077,-0.00005180,0.00009447,0.00002790,0.00000843,-0.000006
 24,-0.00000588,0.00000091,0.00004440,0.00002130,0.00002971,-0.00002924
 ,0.00014121,-0.00012558,-0.00003065,0.00003512,0.00014579,-0.00016407,
 -0.00026307,0.00005751,0.00002010,0.00147399,-0.00006950,0.00040928,-0
 .00035658,-0.00057754,-0.00030677,-0.03249735,0.06253163,0.00009621,-0
 .00007313,-0.00006205,0.00003265,0.00001176,-0.00003571,-0.00000239,-0
 .00000821,-0.00003325,0.00005296,0.00005363,0.00000483,0.00083171,0.00
 034998,0.00003471,-0.00060655,0.00035341,0.00084825,0.00042139,-0.0002
 1840,-0.00065001,0.00693175,-0.00215109,0.01256433,0.00118067,0.000053
 73,-0.00034145,0.00071382,0.00071187,-0.00024504,-0.00446324,0.0014762
 3,-0.00741878,-0.12053730,0.04443751,-0.23288740,0.00073103,-0.0022430
 8,0.00047669,0.00011256,-0.00086072,0.00014611,0.00000412,0.00000029,0
 .00001732,0.00002133,0.00001045,0.00000275,-0.00001313,0.00001690,0.00
 000564,0.00002934,0.00002322,-0.00000018,-0.00001991,-0.00002864,-0.00
 004271,0.00000939,-0.00002925,0.00008411,-0.00000090,0.00000703,-0.000
 02388,-0.00001455,0.00000356,0.00001281,0.00000506,-0.00000599,-0.0000
 0057,-0.00002371,-0.00004646,-0.00004275,0.00022017,-0.00023042,0.0000
 1226,0.00022137,-0.00007971,0.00008600,-0.00014196,0.00008873,0.000125
 67,0.00009367,0.00054074,-0.00008382,0.12715978,-0.04861563,0.24861670
 ,0.00016529,0.00026256,-0.00018070,-0.00011079,-0.00010006,0.00006415,
 -0.00004263,-0.00007918,0.00005385,-0.00004676,0.00003401,-0.00000190,
 0.00164159,-0.00163771,-0.00061542,0.00053619,0.00741286,0.00026760,-0
 .00178328,-0.00160610,-0.00052544,-0.02648862,0.01496620,0.02599192,-0
 .00128371,-0.00197019,0.00304295,-0.00007879,-0.00036075,0.00049896,0.
 00010970,-0.00162146,-0.00438951,-0.06425819,0.04272377,0.05239038,0.0
 0053878,-0.00199006,-0.00042475,0.00000875,-0.00092670,-0.00010422,0.0
 0002323,-0.00004118,-0.00004770,0.00007408,0.00014722,0.00006850,0.000
 02927,-0.00003495,-0.00004933,0.00002126,-0.00002064,-0.00001075,0.000
 03536,-0.00001751,-0.00001312,-0.00000186,0.00000654,-0.00001955,0.000
 02651,-0.00003211,-0.00000408,0.00000424,0.00000270,-0.00000340,0.0000
 4406,0.00007819,-0.00008144,-0.00069856,0.00101712,0.00001800,-0.00010
 284,0.00028072,0.00014538,0.00011363,0.00017715,-0.00029669,0.00000140
 ,0.00003819,-0.00016679,0.00031787,-0.00024888,-0.00035937,0.00701088,
 -0.01070409,-0.01304535,0.08419397,-0.00011339,-0.00044431,-0.00016017
 ,-0.00003153,-0.00001565,0.00000618,-0.00000221,0.00003362,0.00004470,
 0.00004111,0.00016843,-0.00000429,0.00004743,-0.00008338,0.00013314,-0
 .00011301,0.00145553,0.00089098,-0.00051846,-0.00042498,-0.00052840,-0
 .00308499,0.00590856,0.00658341,-0.00026272,-0.00119937,0.00038434,0.0
 0004119,0.00055773,0.00004683,0.00762180,-0.01294961,-0.02652460,0.044
 71116,-0.13693952,-0.11513314,0.00025145,-0.00620099,0.00172058,-0.000
 06632,-0.00107636,-0.00145348,0.00002128,0.00000500,-0.00000281,0.0000
 1071,0.00000903,-0.00000447,-0.00001223,-0.00000482,-0.00001520,0.0000
 0586,0.00002229,-0.00002226,0.00001485,-0.00003917,-0.00003032,-0.0000
 0112,-0.00001346,0.00001360,0.00002134,0.00001801,-0.00006150,-0.00001
 042,-0.00000418,0.00000612,-0.00000691,0.00000484,0.00000635,0.0000235
 4,0.00005047,-0.00002511,0.00006447,0.00000506,0.00004136,0.00047010,-
 0.00007285,0.00043657,0.00004223,-0.00018146,0.00031825,-0.00099044,0.
 00073838,0.00027420,-0.00241910,0.00490145,0.00645170,-0.04575566,0.14
 577171,-0.00015733,0.00002786,0.00003191,0.00000507,0.00000001,0.00000
 790,0.00001939,0.00001422,-0.00009636,-0.00004498,-0.00007742,-0.00002
 077,-0.00178760,0.00061257,0.00060958,0.00101237,-0.00395905,0.0005828
 1,0.00037564,0.00089676,-0.00022340,0.00768079,0.00133289,0.00167508,-
 0.00081100,0.00084693,-0.00134234,0.00008695,-0.00023105,-0.00037865,-
 0.00386861,0.00613024,0.00623611,0.05224823,-0.11477750,-0.20943645,-0
 .00011179,0.00118938,0.00026890,0.00020933,0.00010812,0.00077151,-0.00
 002400,-0.00000239,0.00000534,-0.00004673,-0.00006808,-0.00003394,0.00
 001308,0.00002308,0.00004698,-0.00005226,-0.00002535,0.00003928,-0.000
 00753,0.00010281,0.00010755,0.00000914,0.00001395,-0.00006670,-0.00001
 503,0.00001722,0.00003834,0.00002172,-0.00002062,0.00001175,-0.0000447
 0,-0.00004631,0.00005193,0.00004114,-0.00026536,0.00007833,0.00003784,
 -0.00000957,-0.00006040,-0.00010265,0.00023916,0.00010588,0.00006675,-
 0.00006230,-0.00004080,-0.00009201,-0.00080752,0.00092137,0.00754095,-
 0.01781017,-0.02117057,-0.06220219,0.12660747,0.22127982\\0.00000050,-
 0.00000078,-0.00000229,0.00000299,-0.00000068,-0.00000483,0.00000174,0
 .00000044,0.00000033,-0.00000280,-0.00000194,-0.00000322,-0.00000064,0
 .00000141,0.00000006,0.00000209,-0.00000186,-0.00000211,-0.00000175,-0
 .00000164,-0.00000446,-0.00000112,0.00000106,0.00000027,-0.00000029,-0
 .00000137,0.,0.00000029,0.00000112,0.00000143,-0.00000037,0.00000082,0
 .00000464,0.00000019,0.00000130,0.00000358,-0.00000387,0.00000066,0.00
 000701,-0.00000431,0.00000136,0.00000664,0.00000388,-0.00000086,-0.000
 00608,0.00000317,-0.00000119,-0.00000645,0.00000580,0.00000054,-0.0000
 0365,0.00000145,0.00000025,-0.00000061,0.00000337,0.00000163,0.0000016
 1,-0.00000087,0.00000055,0.00000237,-0.00000250,-0.00000236,-0.0000048
 2,-0.00000455,-0.00000200,-0.00000172,-0.00000305,-0.00000263,-0.00000
 538,-0.00000378,-0.00000111,-0.00000038,0.00000008,-0.00000091,-0.0000
 0308,0.00000321,0.00000156,0.00000172,-0.00000018,0.00000073,0.0000025
 7,0.00000091,0.00000279,0.00000723,-0.00000188,0.00000118,0.00000524,0
 .00000231,0.00000194,0.00000438\\\@
 The archive entry for this job was punched.


 I am not a vegetarian because I love animals;
 I am a vegetarian because I hate plants.
                               -- A. Whitney Brown
 Job cpu time:  0 days  0 hours 16 minutes 21.6 seconds.
 File lengths (MBytes):  RWF=    113 Int=      0 D2E=      0 Chk=      3 Scr=      1
 Normal termination of Gaussian DV at Wed Oct 19 22:50:52 2011.
