 Entering Gaussian System, Link 0=gdv
 Input=cua.gjf
 Output=cua.log
 Initial command:
 /home/foresman/gdv/l1.exe /tmp/Gau-24412.inp -scrdir=/tmp/
 Default is to use a total of   8 processors:
                                8 via shared-memory
                                1 via Linda
 Entering Link 1 = /home/foresman/gdv/l1.exe PID=     24413.
  
 Copyright (c) 1988,1990,1992,1993,1995,1998,2003,2009,2011,
            Gaussian, Inc.  All Rights Reserved.
  
 This is the private, development version of
 the Gaussian(R) DV system of programs. It is based on
 the Gaussian(R) 09 system (copyright 2009, Gaussian, Inc.),
 the Gaussian(R) 03 system (copyright 2003, Gaussian, Inc.),
 the Gaussian(R) 98 system (copyright 1998, Gaussian, Inc.),
 the Gaussian(R) 94 system (copyright 1995, Gaussian, Inc.),
 the Gaussian 92(TM) system (copyright 1992, Gaussian, Inc.),
 the Gaussian 90(TM) system (copyright 1990, Gaussian, Inc.),
 the Gaussian 88(TM) system (copyright 1988, Gaussian, Inc.),
 the Gaussian 86(TM) system (copyright 1986, Carnegie Mellon
 University), and the Gaussian 82(TM) system (copyright 1983,
 Carnegie Mellon University). Gaussian is a federally registered
 trademark of Gaussian, Inc.
  
 This software contains proprietary and confidential information,
 including trade secrets, belonging to Gaussian, Inc.
  
 This software is provided under written license and may be
 used, copied, transmitted, or stored only in accord with that
 written license.
  
 The following legend is applicable only to US Government
 contracts under FAR:
  
                    RESTRICTED RIGHTS LEGEND
  
 Use, reproduction and disclosure by the US Government is
 subject to restrictions as set forth in subparagraphs (a)
 and (c) of the Commercial Computer Software - Restricted
 Rights clause in FAR 52.227-19.
  
 Gaussian, Inc.
 340 Quinnipiac St., Bldg. 40, Wallingford CT 06492
  
  
 ---------------------------------------------------------------
 Warning -- This program may not be used in any manner that
 competes with the business of Gaussian, Inc. or will provide
 assistance to any competitor of Gaussian, Inc.  The licensee
 of this program is prohibited from giving any competitor of
 Gaussian, Inc. access to this program.  By using this program,
 the user acknowledges that Gaussian, Inc. is engaged in the
 business of creating and licensing software in the field of
 computational chemistry and represents and warrants to the
 licensee that it is not a competitor of Gaussian, Inc. and that
 it will not use this program in any manner prohibited above.
 ---------------------------------------------------------------
  

 Cite this work as:
 Gaussian Development Version, Revision H.13,
 M. J. Frisch, G. W. Trucks, H. B. Schlegel, G. E. Scuseria, 
 M. A. Robb, J. R. Cheeseman, G. Scalmani, V. Barone, B. Mennucci, 
 G. A. Petersson, H. Nakatsuji, M. Caricato, X. Li, H. P. Hratchian, 
 A. F. Izmaylov, J. Bloino, G. Zheng, J. L. Sonnenberg, W. Liang, 
 M. Hada, M. Ehara, K. Toyota, R. Fukuda, J. Hasegawa, M. Ishida, 
 T. Nakajima, Y. Honda, O. Kitao, H. Nakai, T. Vreven, 
 J. A. Montgomery, Jr., J. E. Peralta, F. Ogliaro, M. Bearpark, 
 J. J. Heyd, E. Brothers, K. N. Kudin, V. N. Staroverov, T. Keith, 
 R. Kobayashi, J. Normand, K. Raghavachari, A. Rendell, J. C. Burant, 
 S. S. Iyengar, J. Tomasi, M. Cossi, N. Rega, J. M. Millam, M. Klene, 
 J. E. Knox, J. B. Cross, V. Bakken, C. Adamo, J. Jaramillo, 
 R. Gomperts, R. E. Stratmann, O. Yazyev, A. J. Austin, R. Cammi, 
 C. Pomelli, J. W. Ochterski, R. L. Martin, K. Morokuma, 
 V. G. Zakrzewski, G. A. Voth, P. Salvador, J. J. Dannenberg, 
 S. Dapprich, P. V. Parandekar, N. J. Mayhall, A. D. Daniels, 
 O. Farkas, J. B. Foresman, J. V. Ortiz, J. Cioslowski, 
 and D. J. Fox, Gaussian, Inc., Wallingford CT, 2010.
 
 ******************************************
 Gaussian DV:  EM64L-GDVRevH.13 30-Sep-2011
                19-Oct-2011 
 ******************************************
 %chk=cua
 %nprocshared=8
 Will use up to    8 processors via shared memory.
 Default route:  maxdisk=400GB
 ------------------------------------
 #p B3LYP/3-21G freq=vcd Geom=Connect
 ------------------------------------
 1/10=4,30=1,38=1,57=2/1,3;
 2/12=2,17=6,18=5,40=1/2;
 3/5=5,11=2,16=1,25=1,30=1,36=2,71=2,74=-5,140=1/1,2,3;
 4//1;
 5/5=2,38=5,98=1/2;
 8/6=4,10=90,11=11/1;
 10/15=4,46=1/2;
 11/6=1,8=1,9=11,15=111,16=1/1,2,10;
 10/6=1,46=1/2;
 6/7=2,8=2,9=2,10=2,18=1,28=1/1;
 7/8=1,10=1,25=1/1,2,3,16;
 1/10=4,30=1/3;
 99//99;
 Leave Link    1 at Wed Oct 19 22:50:52 2011, MaxMem=          0 cpu:       0.3
 (Enter /home/foresman/gdv/l101.exe)
 ----------------
 28 -19.928 0.000
 ----------------
 Charge =  0 Multiplicity = 1
 Symbolic Z-Matrix:
 C                    -0.35661  -2.15848   0.35311 
 C                    -1.01171  -2.89132  -0.82808 
 C                     1.0143   -2.75291   0.69761 
 C                    -1.27863  -2.11093   1.5816 
 O                     0.0001   -0.75918  -0.05987 
 C                    -1.0115    0.10107  -0.45932 
 O                    -2.22366  -0.16281  -0.49722 
 N                    -0.47702   1.3011   -0.80538 
 C                    -1.34761   2.42697  -1.22945 
 C                    -0.39112   3.63503  -1.14636 
 C                     0.9934    3.01975  -1.48125 
 C                     0.95311   1.64676  -0.75739 
 O                     2.13841   3.83684  -1.14584 
 H                     2.08756   4.02956  -0.16924 
 H                    -1.21494  -3.9302   -0.54819 
 H                    -1.94342  -2.38918  -1.09172 
 H                    -0.33619  -2.88229  -1.68996 
 H                     0.89923  -3.79132   1.02385 
 H                     1.66463  -2.72061  -0.18156 
 H                     1.47943  -2.17203   1.49958 
 H                    -1.49017  -3.13003   1.92167 
 H                    -0.78762  -1.56169   2.39184 
 H                    -2.20872  -1.60824   1.31358 
 H                    -2.21291   2.50212  -0.56758 
 H                    -1.70558   2.27069  -2.25392 
 H                    -0.66256   4.44572  -1.82478 
 H                    -0.36292   4.01823  -0.11813 
 H                     1.06691   2.85869  -2.55965 
 H                     1.30462   1.76289   0.27784 
 H                     1.56278   0.88672  -1.248 
 
 NAtoms=     30 NQM=        0 NQMF=       0 NMMI=     30 NMMIF=      0
                NMic=       0 NMicF=      0.
                    Isotopes and Nuclear Properties:
 (Nuclear quadrupole moments (NQMom) in fm**2, nuclear magnetic moments (NMagM)
  in nuclear magnetons)

  Atom         1           2           3           4           5           6           7           8           9          10
 IAtWgt=          12          12          12          12          16          12          16          14          12          12
 AtmWgt=  12.0000000  12.0000000  12.0000000  12.0000000  15.9949146  12.0000000  15.9949146  14.0030740  12.0000000  12.0000000
 NucSpn=           0           0           0           0           0           0           0           2           0           0
 AtZEff=   0.0000000   0.0000000   0.0000000   0.0000000   0.0000000   0.0000000   0.0000000   0.0000000   0.0000000   0.0000000
 NQMom=    0.0000000   0.0000000   0.0000000   0.0000000   0.0000000   0.0000000   0.0000000   2.0440000   0.0000000   0.0000000
 NMagM=    0.0000000   0.0000000   0.0000000   0.0000000   0.0000000   0.0000000   0.0000000   0.4037610   0.0000000   0.0000000
 AtZNuc=   6.0000000   6.0000000   6.0000000   6.0000000   8.0000000   6.0000000   8.0000000   7.0000000   6.0000000   6.0000000

  Atom        11          12          13          14          15          16          17          18          19          20
 IAtWgt=          12          12          16           1           1           1           1           1           1           1
 AtmWgt=  12.0000000  12.0000000  15.9949146   1.0078250   1.0078250   1.0078250   1.0078250   1.0078250   1.0078250   1.0078250
 NucSpn=           0           0           0           1           1           1           1           1           1           1
 AtZEff=   0.0000000   0.0000000   0.0000000   0.0000000   0.0000000   0.0000000   0.0000000   0.0000000   0.0000000   0.0000000
 NQMom=    0.0000000   0.0000000   0.0000000   0.0000000   0.0000000   0.0000000   0.0000000   0.0000000   0.0000000   0.0000000
 NMagM=    0.0000000   0.0000000   0.0000000   2.7928460   2.7928460   2.7928460   2.7928460   2.7928460   2.7928460   2.7928460
 AtZNuc=   6.0000000   6.0000000   8.0000000   1.0000000   1.0000000   1.0000000   1.0000000   1.0000000   1.0000000   1.0000000

  Atom        21          22          23          24          25          26          27          28          29          30
 IAtWgt=           1           1           1           1           1           1           1           1           1           1
 AtmWgt=   1.0078250   1.0078250   1.0078250   1.0078250   1.0078250   1.0078250   1.0078250   1.0078250   1.0078250   1.0078250
 NucSpn=           1           1           1           1           1           1           1           1           1           1
 AtZEff=   0.0000000   0.0000000   0.0000000   0.0000000   0.0000000   0.0000000   0.0000000   0.0000000   0.0000000   0.0000000
 NQMom=    0.0000000   0.0000000   0.0000000   0.0000000   0.0000000   0.0000000   0.0000000   0.0000000   0.0000000   0.0000000
 NMagM=    2.7928460   2.7928460   2.7928460   2.7928460   2.7928460   2.7928460   2.7928460   2.7928460   2.7928460   2.7928460
 AtZNuc=   1.0000000   1.0000000   1.0000000   1.0000000   1.0000000   1.0000000   1.0000000   1.0000000   1.0000000   1.0000000
 Leave Link  101 at Wed Oct 19 22:50:53 2011, MaxMem=  128000000 cpu:       0.9
 (Enter /home/foresman/gdv/l103.exe)

 GradGradGradGradGradGradGradGradGradGradGradGradGradGradGradGradGradGrad
 Berny optimization.
 Initialization pass.
 Trust Radius=3.00D-01 FncErr=1.00D-07 GrdErr=1.00D-07
 Number of steps in this run=      2 maximum allowed number of steps=      2.
 GradGradGradGradGradGradGradGradGradGradGradGradGradGradGradGradGradGrad

 Leave Link  103 at Wed Oct 19 22:50:53 2011, MaxMem=  128000000 cpu:       0.2
 (Enter /home/foresman/gdv/l202.exe)
                          Input orientation:                          
 ---------------------------------------------------------------------
 Center     Atomic      Atomic             Coordinates (Angstroms)
 Number     Number       Type             X           Y           Z
 ---------------------------------------------------------------------
      1          6           0       -0.356608   -2.158483    0.353110
      2          6           0       -1.011708   -2.891321   -0.828077
      3          6           0        1.014305   -2.752914    0.697610
      4          6           0       -1.278634   -2.110930    1.581597
      5          8           0        0.000104   -0.759183   -0.059874
      6          6           0       -1.011500    0.101074   -0.459321
      7          8           0       -2.223660   -0.162810   -0.497216
      8          7           0       -0.477022    1.301101   -0.805378
      9          6           0       -1.347615    2.426968   -1.229447
     10          6           0       -0.391117    3.635026   -1.146362
     11          6           0        0.993398    3.019750   -1.481245
     12          6           0        0.953108    1.646755   -0.757393
     13          8           0        2.138411    3.836838   -1.145842
     14          1           0        2.087565    4.029555   -0.169237
     15          1           0       -1.214941   -3.930204   -0.548191
     16          1           0       -1.943420   -2.389175   -1.091719
     17          1           0       -0.336194   -2.882291   -1.689956
     18          1           0        0.899228   -3.791317    1.023846
     19          1           0        1.664628   -2.720614   -0.181561
     20          1           0        1.479432   -2.172033    1.499583
     21          1           0       -1.490167   -3.130031    1.921670
     22          1           0       -0.787615   -1.561687    2.391838
     23          1           0       -2.208719   -1.608244    1.313582
     24          1           0       -2.212907    2.502122   -0.567576
     25          1           0       -1.705583    2.270692   -2.253922
     26          1           0       -0.662561    4.445716   -1.824775
     27          1           0       -0.362919    4.018235   -0.118134
     28          1           0        1.066913    2.858689   -2.559646
     29          1           0        1.304617    1.762894    0.277839
     30          1           0        1.562781    0.886721   -1.248004
 ---------------------------------------------------------------------
                    Distance matrix (angstroms):
                    1          2          3          4          5
     1  C    0.000000
     2  C    1.536687   0.000000
     3  C    1.533437   2.540001   0.000000
     4  C    1.536741   2.546917   2.539910   0.000000
     5  O    1.501946   2.481917   2.361641   2.481294   0.000000
     6  C    2.488881   3.015031   3.686139   3.021534   1.386702
     7  O    2.862106   3.003843   4.315166   3.001617   2.343514
     8  N    3.650386   4.226441   4.573627   4.240541   2.242363
     9  C    4.951055   5.343980   6.010273   5.338468   3.651822
    10  C    5.984510   6.563509   6.795677   6.422263   4.543411
    11  C    5.656985   6.275973   6.170210   6.392731   4.157795
    12  C    4.174735   4.945668   4.634422   4.956990   2.680165
    13  O    6.664523   7.435883   6.934462   7.381807   5.184119
    14  H    6.673729   7.611708   6.921358   7.218191   5.225080
    15  H    2.165196   1.094951   2.812040   2.801752   3.430768
    16  H    2.158407   1.090754   3.475937   2.768750   2.738406
    17  H    2.167587   1.095096   2.746099   3.490881   2.697750
    18  H    2.166369   2.809143   1.094511   2.806754   3.343159
    19  H    2.165008   2.758604   1.094032   3.484714   2.575395
    20  H    2.164632   3.484416   1.094041   2.759962   2.572248
    21  H    2.165466   2.801252   2.812991   1.094971   3.430503
    22  H    2.167566   3.490844   2.745240   1.095107   2.697296
    23  H    2.157680   2.768722   3.475280   1.090680   2.736089
    24  H    5.100465   5.531723   6.295315   5.174172   3.973825
    25  H    5.313562   5.400081   6.430081   5.838844   4.111369
    26  H    6.960764   7.412653   7.809902   7.414346   5.535790
    27  H    6.194672   6.976167   6.957775   6.426063   4.791544
    28  H    5.973490   6.354653   6.488650   6.881032   4.525035
    29  H    4.259406   5.315085   4.544558   4.835234   2.859489
    30  H    3.939656   4.591071   4.163313   5.006615   2.561759
                    6          7          8          9         10
     6  C    0.000000
     7  O    1.241129   0.000000
     8  N    1.358487   2.299727   0.000000
     9  C    2.473024   2.830294   1.485040   0.000000
    10  C    3.653179   4.266517   2.360266   1.543113   0.000000
    11  C    3.685460   4.631032   2.360654   2.427990   1.551642
    12  C    2.517471   3.665252   1.472090   2.474852   2.431349
    13  O    4.934489   5.953618   3.658739   3.761263   2.537566
    14  H    5.012117   6.022471   3.798189   3.936088   2.693379
    15  H    4.037387   3.900433   5.289350   6.394947   7.633427
    16  H    2.733083   2.321351   3.981263   4.854811   6.221225
    17  H    3.297115   3.518627   4.278210   5.424322   6.540179
    18  H    4.582726   5.023158   5.583264   6.985177   7.843810
    19  H    3.898812   4.664845   4.598913   6.055516   6.749155
    20  H    3.899880   4.662303   4.604695   6.049017   6.649956
    21  H    4.042064   3.897874   5.300772   6.389843   7.509110
    22  H    3.308173   3.516491   4.302814   5.416333   6.299357
    23  H    2.738300   2.317000   3.994127   4.846796   6.070163
    24  H    2.687029   2.665882   2.124217   1.091994   2.222023
    25  H    2.899928   3.045711   2.132546   1.096409   2.194520
    26  H    4.567508   5.043605   3.310921   2.213382   1.091395
    27  H    3.985124   4.592079   2.805021   2.176413   1.097678
    28  H    4.041733   4.920462   2.808429   2.790297   2.173919
    29  H    2.944393   4.093628   2.135615   3.122057   2.899783
    30  H    2.804672   4.000291   2.128009   3.292888   3.373608
                   11         12         13         14         15
    11  C    0.000000
    12  C    1.552643   0.000000
    13  O    1.446093   2.520377   0.000000
    14  H    1.984508   2.703822   0.996736   0.000000
    15  H    7.351817   5.987210   8.481103   8.626003   0.000000
    16  H    6.167099   4.978994   7.444966   7.635438   1.789099
    17  H    6.053550   4.800442   7.180978   7.480697   1.781556
    18  H    7.257753   5.722617   8.026947   8.000102   2.638238
    19  H    5.923808   4.462259   6.644885   6.763417   3.144748
    20  H    6.006344   4.467001   6.598413   6.450929   3.813685
    21  H    7.454377   5.997054   8.432881   8.272348   2.610794
    22  H    6.257983   4.820982   7.086669   6.788796   3.799507
    23  H    6.283545   4.988096   7.388858   7.241656   3.137721
    24  H    3.373888   3.285016   4.588009   4.581024   6.509311
    25  H    2.905618   3.114086   4.296155   4.671989   6.449912
    26  H    2.212146   3.403508   2.945696   3.236848   8.490632
    27  H    2.166712   2.786484   2.710303   2.451043   8.005534
    28  H    1.092838   2.174823   2.025766   2.850739   7.439213
    29  H    2.184244   1.099433   2.650155   2.439393   6.280277
    30  H    2.220003   1.090896   3.007487   3.364007   5.604306
                   16         17         18         19         20
    16  H    0.000000
    17  H    1.784440   0.000000
    18  H    3.810809   3.117261   0.000000
    19  H    3.735806   2.510913   1.784726   0.000000
    20  H    4.298594   3.738198   1.784669   1.778055   0.000000
    21  H    3.136051   3.799588   2.636778   3.813651   3.148721
    22  H    3.762418   4.313794   3.112569   3.738848   2.511602
    23  H    2.542775   3.761753   3.809079   4.298329   3.735628
    24  H    4.926676   5.811514   7.198984   6.516230   6.305096
    25  H    4.808497   5.361578   7.367276   6.369155   6.631058
    26  H    6.992404   7.336510   8.854520   7.711825   7.709350
    27  H    6.670889   7.077330   7.992886   7.037546   6.658129
    28  H    6.225512   5.973603   7.555933   6.094357   6.477320
    29  H    5.446570   5.304925   5.618730   4.521339   4.123939
    30  H    4.800976   4.243452   5.242675   3.763049   4.112438
                   21         22         23         24         25
    21  H    0.000000
    22  H    1.781668   0.000000
    23  H    1.789392   1.784472   0.000000
    24  H    6.199987   5.225335   4.520385   0.000000
    25  H    6.830065   6.092034   5.293994   1.776148   0.000000
    26  H    8.491921   7.340596   6.992161   2.785980   2.450059
    27  H    7.518590   6.133176   6.092130   2.433732   3.068916
    28  H    7.904785   6.891749   6.759079   3.853921   2.850604
    29  H    5.869729   4.460860   4.978039   3.692446   3.965978
    30  H    5.958324   4.976697   5.197189   4.162730   3.689099
                   26         27         28         29         30
    26  H    0.000000
    27  H    1.784699   0.000000
    28  H    2.459627   3.057769   0.000000
    29  H    3.935519   2.832672   3.050999   0.000000
    30  H    4.236892   3.845947   2.419701   1.778349   0.000000
 Stoichiometry    C9H17NO3
 Framework group  C1[X(C9H17NO3)]
 Deg. of freedom    84
 Full point group                 C1      NOp   1
 Largest Abelian subgroup         C1      NOp   1
 Largest concise Abelian subgroup C1      NOp   1
                         Standard orientation:                         
 ---------------------------------------------------------------------
 Center     Atomic      Atomic             Coordinates (Angstroms)
 Number     Number       Type             X           Y           Z
 ---------------------------------------------------------------------
      1          6           0        2.607584    0.386481    0.021690
      2          6           0        3.116963   -0.319103   -1.244838
      3          6           0        2.986198    1.872403    0.032585
      4          6           0        3.071816   -0.326060    1.301669
      5          8           0        1.106909    0.442621   -0.004122
      6          6           0        0.391289   -0.744915   -0.028369
      7          8           0        0.871977   -1.889071   -0.012640
      8          7           0       -0.939112   -0.472826   -0.066943
      9          6           0       -1.939970   -1.569833   -0.052682
     10          6           0       -3.248512   -0.820361    0.274742
     11          6           0       -3.032792    0.575238   -0.368190
     12          6           0       -1.537749    0.872035   -0.072455
     13          8           0       -3.943266    1.611324    0.066260
     14          1           0       -3.856419    1.684348    1.056516
     15          1           0        4.211748   -0.304978   -1.257613
     16          1           0        2.759228   -1.349502   -1.251922
     17          1           0        2.745560    0.201844   -2.133607
     18          1           0        4.075218    1.979627    0.054728
     19          1           0        2.593287    2.362323   -0.863242
     20          1           0        2.557687    2.357805    0.914452
     21          1           0        4.165526   -0.313747    1.352757
     22          1           0        2.670181    0.190985    2.179515
     23          1           0        2.712090   -1.355648    1.290409
     24          1           0       -1.663090   -2.320763    0.690213
     25          1           0       -1.992338   -2.054552   -1.034730
     26          1           0       -4.138833   -1.322733   -0.107481
     27          1           0       -3.343487   -0.693020    1.360865
     28          1           0       -3.180975    0.503152   -1.448532
     29          1           0       -1.443378    1.358648    0.908898
     30          1           0       -1.072145    1.511691   -0.823525
 ---------------------------------------------------------------------
 Rotational constants (GHZ):      1.6081082      0.4042283      0.3535690
 Leave Link  202 at Wed Oct 19 22:50:53 2011, MaxMem=  128000000 cpu:       0.0
 (Enter /home/foresman/gdv/l301.exe)
 Standard basis: 3-21G (6D, 7F)
 Ernie: Thresh=  0.10000D-02 Tol=  0.10000D-05 Strict=F.
 There are   151 symmetry adapted cartesian basis functions of A   symmetry.
 There are   151 symmetry adapted basis functions of A   symmetry.
   151 basis functions,   246 primitive gaussians,   151 cartesian basis functions
    51 alpha electrons       51 beta electrons
       nuclear repulsion energy       870.7880037014 Hartrees.
 IExCor=  402 DFT=T Ex+Corr=B3LYP ExCW=0 ScaHFX=  0.200000
 ScaDFX=  0.800000  0.720000  1.000000  0.810000 ScalE2=  1.000000  1.000000
 IRadAn=      0 IRanWt=     -1 IRanGd=            0 ICorTp=0 IEmpDi=  4
 NAtoms=   30 NActive=   30 NUniq=   30 SFac= 1.00D+00 NAtFMM=   60 NAOKFM=F Big=F
 Integral buffers will be    131072 words long.
 Raffenetti 2 integral format.
 Two-electron integral symmetry is turned on.
 Leave Link  301 at Wed Oct 19 22:50:53 2011, MaxMem=  128000000 cpu:       0.5
 (Enter /home/foresman/gdv/l302.exe)
 NPDir=0 NMtPBC=     1 NCelOv=     1 NCel=       1 NClECP=     1 NCelD=      1
         NCelK=      1 NCelE2=     1 NClLst=     1 CellRange=     0.0.
 One-electron integrals computed using PRISM.
 NBasis=   151 RedAO= T EigKep=  9.40D-03  NBF=   151
 NBsUse=   151 1.00D-06 EigRej= -1.00D+00 NBFU=   151
 Precomputing XC quadrature grid using
 IXCGrd= 2 IRadAn=           0 IRanWt=          -1 IRanGd=           0 AccXCQ= 0.00D+00.
 NRdTot=    1900 NPtTot=      240242 NUsed=      253945 NTot=      253977
 NSgBfM=   149   149   149   149   149 NAtAll=    30    30.
 Leave Link  302 at Wed Oct 19 22:50:53 2011, MaxMem=  128000000 cpu:       2.2
 (Enter /home/foresman/gdv/l303.exe)
 DipDrv:  MaxL=2.
 Leave Link  303 at Wed Oct 19 22:50:53 2011, MaxMem=  128000000 cpu:       0.4
 (Enter /home/foresman/gdv/l401.exe)
 ExpMin= 1.83D-01 ExpMax= 3.22D+02 ExpMxC= 3.22D+02 IAcc=1 IRadAn=         1 AccDes= 0.00D+00
 Harris functional with IExCor=  402 and IRadAn=       1 diagonalized for initial guess.
 HarFok:  IExCor=  402 AccDes= 0.00D+00 IRadAn=         1 IDoV= 1 UseB2=F ITyADJ=14
 ICtDFT=  3500011 ScaDFX=  1.000000  1.000000  1.000000  1.000000
 FoFCou: FMM=F IPFlag=           0 FMFlag=      100000 FMFlg1=           0
         NFxFlg=           0 DoJE=T BraDBF=F KetDBF=T FulRan=T
         wScrn=  0.000000 ICntrl=     500 IOpCl=  0 I1Cent=   200000004 NGrid=           0
         NMat0=    1 NMatS0=      1 NMatT0=    0 NMatD0=    1 NMtDS0=    0 NMtDT0=    0
 Petite list used in FoFCou.
 Harris En= -630.189141669583    
 Initial guess orbital symmetries:
       Occupied  (A) (A) (A) (A) (A) (A) (A) (A) (A) (A) (A) (A)
                 (A) (A) (A) (A) (A) (A) (A) (A) (A) (A) (A) (A)
                 (A) (A) (A) (A) (A) (A) (A) (A) (A) (A) (A) (A)
                 (A) (A) (A) (A) (A) (A) (A) (A) (A) (A) (A) (A)
                 (A) (A) (A)
       Virtual   (A) (A) (A) (A) (A) (A) (A) (A) (A) (A) (A) (A)
                 (A) (A) (A) (A) (A) (A) (A) (A) (A) (A) (A) (A)
                 (A) (A) (A) (A) (A) (A) (A) (A) (A) (A) (A) (A)
                 (A) (A) (A) (A) (A) (A) (A) (A) (A) (A) (A) (A)
                 (A) (A) (A) (A) (A) (A) (A) (A) (A) (A) (A) (A)
                 (A) (A) (A) (A) (A) (A) (A) (A) (A) (A) (A) (A)
                 (A) (A) (A) (A) (A) (A) (A) (A) (A) (A) (A) (A)
                 (A) (A) (A) (A) (A) (A) (A) (A) (A) (A) (A) (A)
                 (A) (A) (A) (A)
 The electronic state of the initial guess is 1-A.
 Leave Link  401 at Wed Oct 19 22:50:53 2011, MaxMem=  128000000 cpu:       2.8
 (Enter /home/foresman/gdv/l502.exe)
 Closed shell SCF:
 Using DIIS extrapolation, IDIIS=  1040.
 Integral symmetry usage will be decided dynamically.
       253662 words used for storage of precomputed grid.
 Keep R1 ints in memory in canonical form, NReq=67953463.
 IVT=      342609 IEndB=      342609 NGot=   128000000 MDV=    61802366
 LenX=    61802366 LenY=    61779124
 Requested convergence on RMS density matrix=1.00D-08 within 128 cycles.
 Requested convergence on MAX density matrix=1.00D-06.
 Requested convergence on             energy=1.00D-06.
 No special actions if energy rises.
 FoFCou: FMM=F IPFlag=           0 FMFlag=           0 FMFlg1=           0
         NFxFlg=           0 DoJE=F BraDBF=F KetDBF=F FulRan=T
         wScrn=  0.000000 ICntrl=     600 IOpCl=  0 I1Cent=           0 NGrid=           0
         NMat0=    1 NMatS0=  11476 NMatT0=    0 NMatD0=    1 NMtDS0=    0 NMtDT0=    0
 Symmetry not used in FoFCou.
 Integral accuracy reduced to 1.0D-05 until final iterations.

 Cycle   1  Pass 0  IDiag  1:
 E= -629.850902164496    
 DIIS: error= 4.64D-02 at cycle   1 NSaved=   1.
 NSaved= 1 IEnMin= 1 EnMin= -629.850902164496     IErMin= 1 ErrMin= 4.64D-02
 ErrMax= 4.64D-02  0.00D+00 EMaxC= 1.00D-01 BMatC= 3.62D-01 BMatP= 3.62D-01
 IDIUse=3 WtCom= 5.36D-01 WtEn= 4.64D-01
 Coeff-Com:  0.100D+01
 Coeff-En:   0.100D+01
 Coeff:      0.100D+01
 Gap=     0.272 Goal=   None    Shift=    0.000
 GapD=    0.272 DampG=1.000 DampE=0.500 DampFc=0.5000 IDamp=-1.
 Damping current iteration by 5.00D-01
 RMSDP=8.85D-03 MaxDP=1.74D-01              OVMax= 3.23D-01

 Cycle   2  Pass 0  IDiag  1:
 E= -629.952267850174     Delta-E=       -0.101365685679 Rises=F Damp=T
 DIIS: error= 3.22D-02 at cycle   2 NSaved=   2.
 NSaved= 2 IEnMin= 2 EnMin= -629.952267850174     IErMin= 2 ErrMin= 3.22D-02
 ErrMax= 3.22D-02  0.00D+00 EMaxC= 1.00D-01 BMatC= 5.04D-02 BMatP= 3.62D-01
 IDIUse=3 WtCom= 6.78D-01 WtEn= 3.22D-01
 Coeff-Com:  0.199D+00 0.801D+00
 Coeff-En:   0.306D+00 0.694D+00
 Coeff:      0.234D+00 0.766D+00
 Gap=     0.292 Goal=   None    Shift=    0.000
 RMSDP=2.80D-03 MaxDP=6.38D-02 DE=-1.01D-01 OVMax= 2.07D-01

 Cycle   3  Pass 0  IDiag  1:
 E= -630.125210425049     Delta-E=       -0.172942574875 Rises=F Damp=F
 DIIS: error= 3.95D-02 at cycle   3 NSaved=   3.
 NSaved= 3 IEnMin= 3 EnMin= -630.125210425049     IErMin= 2 ErrMin= 3.22D-02
 ErrMax= 3.95D-02  0.00D+00 EMaxC= 1.00D-01 BMatC= 6.25D-02 BMatP= 5.04D-02
 IDIUse=2 WtCom= 0.00D+00 WtEn= 1.00D+00
 Coeff-En:   0.000D+00 0.000D+00 0.100D+01
 Coeff:      0.000D+00 0.000D+00 0.100D+01
 Gap=     0.331 Goal=   None    Shift=    0.000
 RMSDP=5.28D-03 MaxDP=1.35D-01 DE=-1.73D-01 OVMax= 3.10D-01

 Cycle   4  Pass 0  IDiag  1:
 E= -629.879966986873     Delta-E=        0.245243438176 Rises=F Damp=F
 DIIS: error= 1.10D-01 at cycle   4 NSaved=   4.
 NSaved= 4 IEnMin= 3 EnMin= -630.125210425049     IErMin= 2 ErrMin= 3.22D-02
 ErrMax= 1.10D-01  0.00D+00 EMaxC= 1.00D-01 BMatC= 3.78D-01 BMatP= 5.04D-02
 IDIUse=2 WtCom= 0.00D+00 WtEn= 1.00D+00
 Coeff-En:   0.000D+00 0.000D+00 0.798D+00 0.202D+00
 Coeff:      0.000D+00 0.000D+00 0.798D+00 0.202D+00
 Gap=     0.283 Goal=   None    Shift=    0.000
 RMSDP=2.87D-03 MaxDP=7.59D-02 DE= 2.45D-01 OVMax= 1.49D-01

 Cycle   5  Pass 0  IDiag  1:
 E= -630.157310945892     Delta-E=       -0.277343959019 Rises=F Damp=F
 DIIS: error= 2.65D-02 at cycle   5 NSaved=   5.
 NSaved= 5 IEnMin= 5 EnMin= -630.157310945892     IErMin= 5 ErrMin= 2.65D-02
 ErrMax= 2.65D-02  0.00D+00 EMaxC= 1.00D-01 BMatC= 2.51D-02 BMatP= 5.04D-02
 IDIUse=3 WtCom= 7.35D-01 WtEn= 2.65D-01
 Coeff-Com: -0.118D-01 0.558D-01 0.313D+00-0.753D-01 0.718D+00
 Coeff-En:   0.000D+00 0.000D+00 0.325D+00 0.000D+00 0.675D+00
 Coeff:     -0.870D-02 0.410D-01 0.316D+00-0.553D-01 0.707D+00
 Gap=     0.302 Goal=   None    Shift=    0.000
 RMSDP=1.06D-03 MaxDP=2.77D-02 DE=-2.77D-01 OVMax= 4.41D-02

 Cycle   6  Pass 0  IDiag  1:
 E= -630.177600513250     Delta-E=       -0.020289567358 Rises=F Damp=F
 DIIS: error= 2.54D-03 at cycle   6 NSaved=   6.
 NSaved= 6 IEnMin= 6 EnMin= -630.177600513250     IErMin= 6 ErrMin= 2.54D-03
 ErrMax= 2.54D-03  0.00D+00 EMaxC= 1.00D-01 BMatC= 2.83D-04 BMatP= 2.51D-02
 IDIUse=3 WtCom= 9.75D-01 WtEn= 2.54D-02
 Coeff-Com: -0.998D-02 0.259D-01 0.137D+00-0.472D-01 0.408D+00 0.487D+00
 Coeff-En:   0.000D+00 0.000D+00 0.000D+00 0.000D+00 0.000D+00 0.100D+01
 Coeff:     -0.972D-02 0.253D-01 0.133D+00-0.460D-01 0.397D+00 0.500D+00
 Gap=     0.286 Goal=   None    Shift=    0.000
 RMSDP=1.20D-04 MaxDP=3.98D-03 DE=-2.03D-02 OVMax= 6.52D-03

 Cycle   7  Pass 0  IDiag  1:
 E= -630.177826571909     Delta-E=       -0.000226058660 Rises=F Damp=F
 DIIS: error= 4.31D-04 at cycle   7 NSaved=   7.
 NSaved= 7 IEnMin= 7 EnMin= -630.177826571909     IErMin= 7 ErrMin= 4.31D-04
 ErrMax= 4.31D-04  0.00D+00 EMaxC= 1.00D-01 BMatC= 8.62D-06 BMatP= 2.83D-04
 IDIUse=3 WtCom= 9.96D-01 WtEn= 4.31D-03
 Coeff-Com: -0.279D-02 0.642D-02 0.300D-01-0.143D-01 0.107D+00 0.233D+00
 Coeff-Com:  0.641D+00
 Coeff-En:   0.000D+00 0.000D+00 0.000D+00 0.000D+00 0.000D+00 0.000D+00
 Coeff-En:   0.100D+01
 Coeff:     -0.278D-02 0.639D-02 0.299D-01-0.143D-01 0.106D+00 0.232D+00
 Coeff:      0.643D+00
 Gap=     0.286 Goal=   None    Shift=    0.000
 RMSDP=1.81D-05 MaxDP=5.00D-04 DE=-2.26D-04 OVMax= 6.69D-04

 Cycle   8  Pass 0  IDiag  1:
 E= -630.177833095346     Delta-E=       -0.000006523436 Rises=F Damp=F
 DIIS: error= 6.95D-05 at cycle   8 NSaved=   8.
 NSaved= 8 IEnMin= 8 EnMin= -630.177833095346     IErMin= 8 ErrMin= 6.95D-05
 ErrMax= 6.95D-05  0.00D+00 EMaxC= 1.00D-01 BMatC= 5.53D-07 BMatP= 8.62D-06
 IDIUse=1 WtCom= 1.00D+00 WtEn= 0.00D+00
 Coeff-Com: -0.265D-03-0.198D-03 0.279D-02-0.158D-02 0.135D-01 0.867D-01
 Coeff-Com:  0.338D+00 0.561D+00
 Coeff:     -0.265D-03-0.198D-03 0.279D-02-0.158D-02 0.135D-01 0.867D-01
 Coeff:      0.338D+00 0.561D+00
 Gap=     0.286 Goal=   None    Shift=    0.000
 RMSDP=5.65D-06 MaxDP=9.63D-05 DE=-6.52D-06 OVMax= 1.89D-04

 Initial convergence to 1.0D-05 achieved.  Increase integral accuracy.
 Cycle   9  Pass 1  IDiag  1:
 E= -630.177843518207     Delta-E=       -0.000010422861 Rises=F Damp=F
 DIIS: error= 2.28D-05 at cycle   1 NSaved=   1.
 NSaved= 1 IEnMin= 1 EnMin= -630.177843518207     IErMin= 1 ErrMin= 2.28D-05
 ErrMax= 2.28D-05  0.00D+00 EMaxC= 1.00D-01 BMatC= 7.13D-08 BMatP= 7.13D-08
 IDIUse=1 WtCom= 1.00D+00 WtEn= 0.00D+00
 Coeff-Com:  0.100D+01
 Coeff:      0.100D+01
 Gap=     0.286 Goal=   None    Shift=    0.000
 RMSDP=5.65D-06 MaxDP=9.63D-05 DE=-1.04D-05 OVMax= 7.57D-05

 Cycle  10  Pass 1  IDiag  1:
 E= -630.177843586375     Delta-E=       -0.000000068168 Rises=F Damp=F
 DIIS: error= 2.12D-05 at cycle   2 NSaved=   2.
 NSaved= 2 IEnMin= 2 EnMin= -630.177843586375     IErMin= 2 ErrMin= 2.12D-05
 ErrMax= 2.12D-05  0.00D+00 EMaxC= 1.00D-01 BMatC= 3.46D-08 BMatP= 7.13D-08
 IDIUse=1 WtCom= 1.00D+00 WtEn= 0.00D+00
 Coeff-Com:  0.368D+00 0.632D+00
 Coeff:      0.368D+00 0.632D+00
 Gap=     0.286 Goal=   None    Shift=    0.000
 RMSDP=1.83D-06 MaxDP=5.12D-05 DE=-6.82D-08 OVMax= 6.49D-05

 Cycle  11  Pass 1  IDiag  1:
 E= -630.177843598368     Delta-E=       -0.000000011993 Rises=F Damp=F
 DIIS: error= 1.66D-05 at cycle   3 NSaved=   3.
 NSaved= 3 IEnMin= 3 EnMin= -630.177843598368     IErMin= 3 ErrMin= 1.66D-05
 ErrMax= 1.66D-05  0.00D+00 EMaxC= 1.00D-01 BMatC= 1.95D-08 BMatP= 3.46D-08
 IDIUse=1 WtCom= 1.00D+00 WtEn= 0.00D+00
 Coeff-Com: -0.150D-01 0.430D+00 0.585D+00
 Coeff:     -0.150D-01 0.430D+00 0.585D+00
 Gap=     0.286 Goal=   None    Shift=    0.000
 RMSDP=8.16D-07 MaxDP=2.52D-05 DE=-1.20D-08 OVMax= 2.87D-05

 Cycle  12  Pass 1  IDiag  1:
 E= -630.177843612278     Delta-E=       -0.000000013910 Rises=F Damp=F
 DIIS: error= 1.37D-06 at cycle   4 NSaved=   4.
 NSaved= 4 IEnMin= 4 EnMin= -630.177843612278     IErMin= 4 ErrMin= 1.37D-06
 ErrMax= 1.37D-06  0.00D+00 EMaxC= 1.00D-01 BMatC= 1.91D-10 BMatP= 1.95D-08
 IDIUse=1 WtCom= 1.00D+00 WtEn= 0.00D+00
 Coeff-Com: -0.127D-01 0.197D+00 0.275D+00 0.541D+00
 Coeff:     -0.127D-01 0.197D+00 0.275D+00 0.541D+00
 Gap=     0.286 Goal=   None    Shift=    0.000
 RMSDP=1.36D-07 MaxDP=2.83D-06 DE=-1.39D-08 OVMax= 2.63D-06

 Cycle  13  Pass 1  IDiag  1:
 E= -630.177843612444     Delta-E=       -0.000000000166 Rises=F Damp=F
 DIIS: error= 5.37D-07 at cycle   5 NSaved=   5.
 NSaved= 5 IEnMin= 5 EnMin= -630.177843612444     IErMin= 5 ErrMin= 5.37D-07
 ErrMax= 5.37D-07  0.00D+00 EMaxC= 1.00D-01 BMatC= 2.80D-11 BMatP= 1.91D-10
 IDIUse=1 WtCom= 1.00D+00 WtEn= 0.00D+00
 Coeff-Com: -0.573D-02 0.593D-01 0.818D-01 0.293D+00 0.572D+00
 Coeff:     -0.573D-02 0.593D-01 0.818D-01 0.293D+00 0.572D+00
 Gap=     0.286 Goal=   None    Shift=    0.000
 RMSDP=3.67D-08 MaxDP=7.01D-07 DE=-1.66D-10 OVMax= 9.95D-07

 Cycle  14  Pass 1  IDiag  1:
 E= -630.177843612466     Delta-E=       -0.000000000023 Rises=F Damp=F
 DIIS: error= 1.11D-07 at cycle   6 NSaved=   6.
 NSaved= 6 IEnMin= 6 EnMin= -630.177843612466     IErMin= 6 ErrMin= 1.11D-07
 ErrMax= 1.11D-07  0.00D+00 EMaxC= 1.00D-01 BMatC= 9.51D-13 BMatP= 2.80D-11
 IDIUse=1 WtCom= 1.00D+00 WtEn= 0.00D+00
 Coeff-Com: -0.160D-02 0.153D-01 0.205D-01 0.944D-01 0.241D+00 0.630D+00
 Coeff:     -0.160D-02 0.153D-01 0.205D-01 0.944D-01 0.241D+00 0.630D+00
 Gap=     0.286 Goal=   None    Shift=    0.000
 RMSDP=1.02D-08 MaxDP=2.30D-07 DE=-2.25D-11 OVMax= 3.12D-07

 Cycle  15  Pass 1  IDiag  1:
 E= -630.177843612472     Delta-E=       -0.000000000005 Rises=F Damp=F
 DIIS: error= 1.18D-07 at cycle   7 NSaved=   7.
 NSaved= 7 IEnMin= 7 EnMin= -630.177843612472     IErMin= 6 ErrMin= 1.11D-07
 ErrMax= 1.18D-07  0.00D+00 EMaxC= 1.00D-01 BMatC= 4.70D-13 BMatP= 9.51D-13
 IDIUse=1 WtCom= 1.00D+00 WtEn= 0.00D+00
 Coeff-Com: -0.365D-03 0.247D-02 0.305D-02 0.221D-01 0.761D-01 0.426D+00
 Coeff-Com:  0.470D+00
 Coeff:     -0.365D-03 0.247D-02 0.305D-02 0.221D-01 0.761D-01 0.426D+00
 Coeff:      0.470D+00
 Gap=     0.286 Goal=   None    Shift=    0.000
 RMSDP=4.99D-09 MaxDP=1.38D-07 DE=-5.46D-12 OVMax= 2.33D-07

 SCF Done:  E(RB3LYP) =  -630.177843612     A.U. after   15 cycles
            NFock= 15  Conv=0.50D-08     -V/T= 2.0085
 KE= 6.248445802946D+02 PE=-3.210950601011D+03 EE= 1.085140173402D+03
 Leave Link  502 at Wed Oct 19 22:51:06 2011, MaxMem=  128000000 cpu:      97.3
 (Enter /home/foresman/gdv/l801.exe)
 DoSCS=F DFT=T ScalE2(SS,OS)=  1.000000  1.000000
 Range of M.O.s used for correlation:     1   151
 NBasis=   151 NAE=    51 NBE=    51 NFC=     0 NFV=     0
 NROrb=    151 NOA=    51 NOB=    51 NVA=   100 NVB=   100
 Leave Link  801 at Wed Oct 19 22:51:06 2011, MaxMem=  128000000 cpu:       0.3
 (Enter /home/foresman/gdv/l1002.exe)
 Minotr:  Closed shell wavefunction.
          Direct CPHF calculation.
          Differentiating once with respect to magnetic field using GIAOs.
          Electric field/nuclear overlap derivatives assumed to be zero.
          Requested convergence is 1.0D-08 RMS, and 1.0D-07 maximum.
          Secondary convergence is 1.0D-12 RMS, and 1.0D-12 maximum.
          NewPWx=T KeepS1=F KeepF1=F KeepIn=T MapXYZ=F SortEE=F KeepMc=T.
          MDV=     127999605 using IRadAn=       2.
 Generate precomputed XC quadrature information.
 Keep R3 ints in memory in canonical form, NReq=67618787.
 FoFCou: FMM=F IPFlag=           0 FMFlag=           0 FMFlg1=           0
         NFxFlg=           0 DoJE=F BraDBF=F KetDBF=F FulRan=T
         wScrn=  0.000000 ICntrl=     600 IOpCl=  0 I1Cent=           0 NGrid=           0
         NMat0=    1 NMatS0=  11476 NMatT0=    0 NMatD0=    1 NMtDS0=    0 NMtDT0=    0
 Symmetry not used in FoFCou.
          Solving linear equations simultaneously, MaxMat=       0.
 FoFJK:  IHMeth= 1 ICntrl=    6127 DoSepK=F KAlg= 0 I1Cent=   0 FoldK=F
 IRaf=       1 NMat=   1 IRICut=       1 DoRegI=T DoRafI=F ISym2E= 0.
          There are     3 degrees of freedom in the 1st order CPHF.  IDoFFX=0 NUNeed=     3.
      3 vectors produced by pass  0 Test12= 1.70D-13 3.33D-08 XBig12= 2.78D+01 8.12D-01.
 AX will form     3 AO Fock derivatives at one time.
      3 vectors produced by pass  1 Test12= 1.70D-13 3.33D-08 XBig12= 3.32D-02 7.50D-02.
      3 vectors produced by pass  2 Test12= 1.70D-13 3.33D-08 XBig12= 1.74D-04 5.23D-03.
      3 vectors produced by pass  3 Test12= 1.70D-13 3.33D-08 XBig12= 3.71D-07 1.52D-04.
      3 vectors produced by pass  4 Test12= 1.70D-13 3.33D-08 XBig12= 1.34D-09 1.28D-05.
      3 vectors produced by pass  5 Test12= 1.70D-13 3.33D-08 XBig12= 4.40D-12 6.34D-07.
      1 vectors produced by pass  6 Test12= 1.70D-13 3.33D-08 XBig12= 1.51D-14 4.64D-08.
 InvSVY:  IOpt=1 It=  1 EMax= 3.35D-17
 Solved reduced A of dimension    19 with     3 vectors.
 Calculating GIAO nuclear magnetic shielding tensors.
 SCF GIAO Magnetic shielding tensor (ppm):
      1  C    Isotropic =   123.9928   Anisotropy =    69.2367
   XX=   169.8540   YX=     4.2404   ZX=     1.1555
   XY=     4.6341   YY=    99.3190   ZY=     0.0353
   XZ=     1.0919   YZ=    -0.0977   ZZ=   102.8055
   Eigenvalues:    99.0382   102.7896   170.1506
      2  C    Isotropic =   178.7739   Anisotropy =    35.4697
   XX=   172.7327   YX=    -7.6375   ZX=    -7.7210
   XY=    -7.3835   YY=   168.4300   ZY=    13.0543
   XZ=    -3.5600   YZ=    12.2792   ZZ=   195.1589
   Eigenvalues:   161.0107   172.8905   202.4204
      3  C    Isotropic =   173.8807   Anisotropy =    40.8635
   XX=   162.8421   YX=    10.0871   ZX=     0.1329
   XY=     7.2989   YY=   199.1472   ZY=     0.2178
   XZ=     0.1219   YZ=     0.2644   ZZ=   159.6528
   Eigenvalues:   159.6470   160.8721   201.1230
      4  C    Isotropic =   178.6737   Anisotropy =    35.4007
   XX=   172.3159   YX=    -7.2423   ZX=     6.9302
   XY=    -6.8703   YY=   168.6042   ZY=   -13.4346
   XZ=     2.9100   YZ=   -12.7950   ZZ=   195.1009
   Eigenvalues:   161.0344   172.7124   202.2741
      5  O    Isotropic =   158.5080   Anisotropy =    80.5878
   XX=   113.1459   YX=     8.3844   ZX=    -1.9286
   XY=   133.8230   YY=   160.3696   ZY=     2.0731
   XZ=    -3.2560   YZ=    -4.1968   ZZ=   202.0086
   Eigenvalues:    61.8205   201.4704   212.2332
      6  C    Isotropic =    62.1565   Anisotropy =    61.9362
   XX=    16.1096   YX=   -39.9800   ZX=    -2.4913
   XY=   -58.6249   YY=    75.6159   ZY=    -1.7438
   XZ=    -3.4807   YZ=    -1.6688   ZZ=    94.7441
   Eigenvalues:   -11.8328    94.8551   103.4473
      7  O    Isotropic =    42.7359   Anisotropy =   392.5382
   XX=   -67.4852   YX=    14.6369   ZX=   -13.9173
   XY=     4.6054   YY=  -108.3709   ZY=    -2.3835
   XZ=    -5.7437   YZ=   -10.2368   ZZ=   304.0637
   Eigenvalues:  -110.5608   -65.6596   304.4280
      8  N    Isotropic =   181.5275   Anisotropy =   130.1020
   XX=   267.6773   YX=    -1.2223   ZX=     0.2706
   XY=   -14.9738   YY=   129.1647   ZY=    -4.3171
   XZ=    -8.1838   YZ=    -4.6773   ZZ=   147.7404
   Eigenvalues:   127.5825   148.7378   268.2621
      9  C    Isotropic =   159.9721   Anisotropy =    46.0576
   XX=   177.0109   YX=    18.9807   ZX=    -3.3861
   XY=    16.3100   YY=   167.0760   ZY=    -1.2278
   XZ=    -7.9447   YZ=     2.7501   ZZ=   135.8293
   Eigenvalues:   134.6816   154.5575   190.6771
     10  C    Isotropic =   168.9889   Anisotropy =    28.3488
   XX=   167.1805   YX=    -3.0224   ZX=    -7.2798
   XY=    -3.6235   YY=   186.3848   ZY=    -4.5467
   XZ=   -12.1134   YZ=    -9.3449   ZZ=   153.4015
   Eigenvalues:   146.8960   172.1826   187.8881
     11  C    Isotropic =   132.0886   Anisotropy =    58.4875
   XX=   145.9399   YX=   -17.4538   ZX=   -17.0708
   XY=   -20.2637   YY=   153.6229   ZY=     9.4022
   XZ=   -10.0471   YZ=     0.0566   ZZ=    96.7030
   Eigenvalues:    93.2158   131.9698   171.0803
     12  C    Isotropic =   152.7492   Anisotropy =    39.4222
   XX=   167.7747   YX=   -16.8740   ZX=     2.5322
   XY=   -15.2429   YY=   156.1034   ZY=     2.7415
   XZ=     6.6210   YZ=     8.6021   ZZ=   134.3694
   Eigenvalues:   130.6435   148.5733   179.0307
     13  O    Isotropic =   268.4626   Anisotropy =   101.8670
   XX=   231.2957   YX=     1.8702   ZX=    27.5708
   XY=    -7.8389   YY=   239.3422   ZY=    -8.6774
   XZ=   -12.9276   YZ=    29.8769   ZZ=   334.7499
   Eigenvalues:   229.2540   239.7600   336.3739
     14  H    Isotropic =    33.1996   Anisotropy =    12.3797
   XX=    29.8193   YX=    -3.4750   ZX=    -1.1637
   XY=    -3.7805   YY=    30.3526   ZY=     3.5541
   XZ=    -1.7078   YZ=     4.1363   ZZ=    39.4269
   Eigenvalues:    26.2310    31.9151    41.4528
     15  H    Isotropic =    31.9739   Anisotropy =     9.1606
   XX=    36.4201   YX=    -1.4087   ZX=    -2.7931
   XY=    -1.7268   YY=    28.6427   ZY=     1.2671
   XZ=    -3.0905   YZ=     1.1814   ZZ=    30.8591
   Eigenvalues:    28.0880    29.7528    38.0810
     16  H    Isotropic =    29.8221   Anisotropy =     6.5313
   XX=    28.9095   YX=     1.1630   ZX=    -2.5823
   XY=     1.7630   YY=    32.9822   ZY=     2.0105
   XZ=    -3.4184   YZ=     3.5828   ZZ=    27.5748
   Eigenvalues:    24.0843    31.2058    34.1763
     17  H    Isotropic =    31.8292   Anisotropy =     7.8966
   XX=    29.7060   YX=    -0.3884   ZX=    -0.7241
   XY=    -0.2984   YY=    28.8309   ZY=    -0.4109
   XZ=     0.3783   YZ=    -1.7449   ZZ=    36.9508
   Eigenvalues:    28.5738    29.8203    37.0936
     18  H    Isotropic =    31.7813   Anisotropy =     8.8402
   XX=    35.1100   YX=     3.6199   ZX=     0.1391
   XY=     3.9299   YY=    32.1099   ZY=     0.0900
   XZ=     0.1473   YZ=     0.0629   ZZ=    28.1239
   Eigenvalues:    28.1210    29.5481    37.6747
     19  H    Isotropic =    31.3499   Anisotropy =     7.9466
   XX=    28.9113   YX=     0.3195   ZX=     0.7030
   XY=    -0.5349   YY=    34.1591   ZY=    -4.3137
   XZ=     0.9771   YZ=    -3.1116   ZZ=    30.9792
   Eigenvalues:    28.0383    29.3637    36.6476
     20  H    Isotropic =    31.3590   Anisotropy =     7.9144
   XX=    28.9860   YX=     0.1830   ZX=    -0.7915
   XY=    -0.6982   YY=    34.1454   ZY=     4.3062
   XZ=    -1.0347   YZ=     3.0745   ZZ=    30.9455
   Eigenvalues:    28.0707    29.3710    36.6353
     21  H    Isotropic =    31.9782   Anisotropy =     9.1343
   XX=    36.2017   YX=    -1.4045   ZX=     2.9429
   XY=    -1.7052   YY=    28.6801   ZY=    -1.2877
   XZ=     3.2675   YZ=    -1.2715   ZZ=    31.0530
   Eigenvalues:    28.1143    29.7526    38.0678
     22  H    Isotropic =    31.8366   Anisotropy =     7.8354
   XX=    29.7058   YX=    -0.4846   ZX=     0.4330
   XY=    -0.3164   YY=    28.8732   ZY=     0.4040
   XZ=    -0.6448   YZ=     1.6279   ZZ=    36.9308
   Eigenvalues:    28.6117    29.8380    37.0602
     23  H    Isotropic =    29.8045   Anisotropy =     6.5435
   XX=    28.6602   YX=     1.2821   ZX=     2.5962
   XY=     1.8344   YY=    33.0222   ZY=    -1.8225
   XZ=     3.4116   YZ=    -3.5522   ZZ=    27.7313
   Eigenvalues:    24.1046    31.1422    34.1669
     24  H    Isotropic =    29.4291   Anisotropy =     8.0871
   XX=    29.3237   YX=     0.6362   ZX=    -0.3630
   XY=    -0.2986   YY=    32.5443   ZY=    -4.6706
   XZ=     0.0732   YZ=    -4.0546   ZZ=    26.4192
   Eigenvalues:    24.1510    29.3157    34.8205
     25  H    Isotropic =    29.7678   Anisotropy =     9.9966
   XX=    28.9170   YX=     2.4099   ZX=     0.4919
   XY=     1.8976   YY=    30.8190   ZY=     5.8130
   XZ=     0.5434   YZ=     5.5725   ZZ=    29.5674
   Eigenvalues:    24.2135    28.6577    36.4322
     26  H    Isotropic =    30.9503   Anisotropy =    10.1664
   XX=    35.1290   YX=     3.3665   ZX=     1.7513
   XY=     4.6176   YY=    30.7945   ZY=     1.0396
   XZ=     0.8924   YZ=     0.5977   ZZ=    26.9275
   Eigenvalues:    26.7032    28.4198    37.7279
     27  H    Isotropic =    31.5738   Anisotropy =     7.7501
   XX=    31.3265   YX=    -1.0796   ZX=    -3.5762
   XY=    -0.4116   YY=    29.1126   ZY=    -1.0458
   XZ=    -3.7009   YZ=    -0.5805   ZZ=    34.2822
   Eigenvalues:    27.9124    30.0684    36.7405
     28  H    Isotropic =    28.3994   Anisotropy =     5.7240
   XX=    27.9814   YX=    -1.4559   ZX=     0.9162
   XY=    -1.2404   YY=    26.1729   ZY=     0.0503
   XZ=     2.8338   YZ=    -1.6245   ZZ=    31.0438
   Eigenvalues:    25.4457    27.5370    32.2154
     29  H    Isotropic =    30.4133   Anisotropy =     6.8710
   XX=    30.0802   YX=    -1.1991   ZX=     0.7375
   XY=    -1.5012   YY=    31.8854   ZY=     3.8586
   XZ=     0.8434   YZ=     4.4013   ZZ=    29.2742
   Eigenvalues:    25.7659    30.4799    34.9939
     30  H    Isotropic =    29.3212   Anisotropy =     5.9627
   XX=    31.1283   YX=     0.7153   ZX=    -1.1109
   XY=     0.3489   YY=    29.9898   ZY=    -4.2340
   XZ=    -1.4354   YZ=    -3.6529   ZZ=    26.8455
   Eigenvalues:    24.0895    30.5778    33.2964
 End of Minotr F.D. properties file   721 does not exist.
 End of Minotr F.D. properties file   722 does not exist.
 Leave Link 1002 at Wed Oct 19 22:51:16 2011, MaxMem=  128000000 cpu:      83.9
 (Enter /home/foresman/gdv/l1101.exe)
 Using compressed storage, NAtomX=    30.
 Will process     31 centers per pass.
 Leave Link 1101 at Wed Oct 19 22:51:16 2011, MaxMem=  128000000 cpu:       1.8
 (Enter /home/foresman/gdv/l1102.exe)
 Symmetrizing basis deriv contribution to polar:
 IMax=3 JMax=2 DiffMx= 0.00D+00
 Leave Link 1102 at Wed Oct 19 22:51:17 2011, MaxMem=  128000000 cpu:       0.4
 (Enter /home/foresman/gdv/l1110.exe)
 Forming Gx(P) for the SCF density, NAtomX=    30.
 Integral derivatives from FoFJK, PRISM(SPDF).
 Do as many integral derivatives as possible in FoFJK.
 G2DrvN: MDV=     127999656.
 G2DrvN: will do    31 centers at a time, making    1 passes.
 Calling FoFCou, ICntrl=  3107 FMM=F I1Cent=   0 AccDes= 0.00D+00.
 FoFJK:  IHMeth= 1 ICntrl=    3107 DoSepK=F KAlg= 0 I1Cent=   0 FoldK=F
 IRaf=       0 NMat=   1 IRICut=       1 DoRegI=T DoRafI=F ISym2E= 0.
 FoFCou: FMM=F IPFlag=           0 FMFlag=      100000 FMFlg1=           0
         NFxFlg=           0 DoJE=F BraDBF=F KetDBF=F FulRan=T
         wScrn=  0.000000 ICntrl=    3107 IOpCl=  0 I1Cent=           0 NGrid=           0
         NMat0=    1 NMatS0=      1 NMatT0=    0 NMatD0=    1 NMtDS0=    0 NMtDT0=    0
 Symmetry not used in FoFCou.
 End of G2Drv F.D. properties file   721 does not exist.
 End of G2Drv F.D. properties file   722 does not exist.
 Leave Link 1110 at Wed Oct 19 22:51:48 2011, MaxMem=  128000000 cpu:     248.1
 (Enter /home/foresman/gdv/l1002.exe)
 Minotr:  Closed shell wavefunction.
          IDoAtm=111111111111111111111111111111
          Direct CPHF calculation.
          Differentiating once with respect to electric field.
                with respect to dipole field.
          Differentiating once with respect to nuclear coordinates.
          Requested convergence is 1.0D-08 RMS, and 1.0D-07 maximum.
          Secondary convergence is 1.0D-12 RMS, and 1.0D-12 maximum.
          NewPWx=T KeepS1=F KeepF1=F KeepIn=T MapXYZ=F SortEE=F KeepMc=T.
          MDV=     127999545 using IRadAn=       2.
 Generate precomputed XC quadrature information.
 Keep R1 ints in memory in canonical form, NReq=67619516.
 FoFCou: FMM=F IPFlag=           0 FMFlag=           0 FMFlg1=           0
         NFxFlg=           0 DoJE=F BraDBF=F KetDBF=F FulRan=T
         wScrn=  0.000000 ICntrl=     600 IOpCl=  0 I1Cent=           0 NGrid=           0
         NMat0=    1 NMatS0=  11476 NMatT0=    0 NMatD0=    1 NMtDS0=    0 NMtDT0=    0
 Symmetry not used in FoFCou.
          Solving linear equations simultaneously, MaxMat=       0.
          There are    93 degrees of freedom in the 1st order CPHF.  IDoFFX=5 NUNeed=    93.
     90 vectors produced by pass  0 Test12= 5.48D-15 1.08D-09 XBig12= 7.58D+01 3.98D+00.
 AX will form    90 AO Fock derivatives at one time.
     90 vectors produced by pass  1 Test12= 5.48D-15 1.08D-09 XBig12= 8.79D+00 7.44D-01.
     90 vectors produced by pass  2 Test12= 5.48D-15 1.08D-09 XBig12= 3.36D-02 1.89D-02.
     90 vectors produced by pass  3 Test12= 5.48D-15 1.08D-09 XBig12= 4.49D-05 9.13D-04.
     90 vectors produced by pass  4 Test12= 5.48D-15 1.08D-09 XBig12= 3.14D-08 1.90D-05.
     42 vectors produced by pass  5 Test12= 5.48D-15 1.08D-09 XBig12= 1.69D-11 5.83D-07.
      3 vectors produced by pass  6 Test12= 5.48D-15 1.08D-09 XBig12= 7.62D-15 1.34D-08.
 InvSVY:  IOpt=1 It=  1 EMax= 1.24D-14
 Solved reduced A of dimension   495 with    93 vectors.
 FullF1:  Do perturbations    1 to     3.
 Isotropic polarizability for W=    0.000000      103.34 Bohr**3.
 Dipole-magnetic dipole polarizability for W=    0.000000:
                 1             2             3 
      1   0.409441D+01 -0.489008D+01 -0.686257D+01
      2   0.735071D+01 -0.827443D+01  0.173301D+02
      3  -0.284219D+02 -0.960212D+01  0.479358D+01
 DQ contribution to OR G for W=    0.000000:
                 1             2             3 
      1  -0.607090D+00  0.782587D+01 -0.315675D+02
      2  -0.540367D+01 -0.628553D+01  0.636590D+02
      3  -0.185397D+02 -0.682831D+02  0.689262D+01
 Optical Rotation G' tensor for W=    0.000000:
                 1             2             3 
      1  -0.189220D+01 -0.312381D+00  0.255771D+01
      2  -0.312381D+00  0.287262D+01 -0.250999D+01
      3   0.255771D+01 -0.250999D+01 -0.366854D+00
 OR G Eigenvalues:    -4.0560     0.0443     4.6253  Iso=    -0.2045
 Eigenvectors:
   (1)   0.735590  -0.201173  -0.646867
   (2)   0.630331   0.553080   0.544780
   (3)  -0.248174   0.808475  -0.533646
 w=    0.000000 a.u., Optical Rotation Beta=     -0.2045 au.
 Molar Mass =    187.2382 grams/mole, [Alpha]D (static) =      -42.22 deg.
 AAT (total):
 -0.0022 -0.0197 -0.1092
 -0.0036 -0.0055  0.3688
  0.1166 -0.3463  0.0006
 -0.0539  0.1552 -0.1388
 -0.1621  0.1215 -0.2161
  0.0201  0.2085 -0.0806
 -0.0012  0.0007  0.1890
  0.0019  0.0011 -0.1706
 -0.1110  0.0088 -0.0006
  0.0601 -0.1512 -0.1408
  0.1678 -0.1240 -0.2143
  0.0218  0.2015  0.0768
  0.0090  0.0339  0.2364
  0.0008  0.0075 -0.2683
 -0.5763  0.3480  0.0011
 -0.0548 -0.0798  1.0069
  0.0218  0.0095 -0.1602
 -0.2601 -0.0966  0.0474
  0.0050  0.0204 -1.1940
 -0.0274 -0.0356  0.0418
  1.0726  0.3954  0.0139
  0.0600  0.0729 -0.5475
 -0.0230 -0.0495  0.3948
  0.1023 -0.4133  0.0274
 -0.0224  0.0771  0.1049
 -0.0634  0.0204 -0.1499
  0.0006  0.2122 -0.0971
 -0.0183  0.0315 -0.0613
  0.0409  0.0713  0.3860
  0.0931 -0.0115 -0.1022
 -0.1350 -0.2667 -0.1385
  0.1272  0.2162 -0.9917
  0.1527  0.4650  0.0322
 -0.0144 -0.0578  0.0598
  0.0530  0.0299 -0.2896
 -0.0880  0.2886 -0.0458
  0.1363  0.1772  0.5240
  0.0304 -0.1377  1.5544
 -0.2852 -0.3934  0.0388
 -0.0620  0.0322 -0.3459
 -0.2247  0.0602 -0.6728
 -0.0615 -0.1151  0.0772
 -0.0026  0.1275 -0.0632
  0.0395  0.0129  0.2686
 -0.0034 -0.2297 -0.0105
  0.0525 -0.0378  0.2597
 -0.0571  0.0510 -0.1410
 -0.2073 -0.0523 -0.1301
  0.0537 -0.0433 -0.0121
  0.0974 -0.1846 -0.0272
  0.1696  0.2363  0.0820
 -0.0043  0.0079  0.1208
 -0.0041  0.0003  0.2505
  0.0809 -0.2663  0.0046
 -0.0719 -0.0410 -0.0508
  0.2018 -0.0915 -0.0792
 -0.0496  0.1617  0.2108
  0.0763  0.0321 -0.0393
 -0.1982  0.0899 -0.0855
 -0.0422  0.1628 -0.2134
  0.0056 -0.1134 -0.0636
 -0.0461 -0.0127  0.2664
 -0.0037 -0.2316  0.0090
 -0.0585  0.0315 -0.0110
 -0.0956  0.1838 -0.0298
  0.1692  0.2399 -0.0756
 -0.0589  0.0308  0.2554
  0.0624 -0.0485 -0.1385
 -0.2160 -0.0546  0.1321
  0.0706  0.1107  0.0955
 -0.1695  0.0244  0.0545
 -0.0004 -0.0543 -0.1428
 -0.0237 -0.1335  0.0439
  0.1913 -0.0131 -0.0488
  0.1301 -0.1173  0.0915
  0.0363 -0.1530  0.1476
  0.0910 -0.0531 -0.1728
 -0.0534  0.1488  0.0278
 -0.0002  0.1717 -0.0265
 -0.1709 -0.1199 -0.0178
  0.0838 -0.2611  0.0664
  0.0073 -0.1074  0.0039
  0.1084 -0.0457 -0.0415
 -0.0319 -0.1354 -0.0002
  0.0046  0.2153 -0.0972
 -0.1674 -0.0246  0.0524
 -0.1245 -0.1215  0.0996
  0.0455 -0.1202 -0.0938
  0.1342  0.0232  0.1141
 -0.0148 -0.0526 -0.1485
 End of Minotr F.D. properties file   721 does not exist.
 End of Minotr F.D. properties file   722 does not exist.
 Leave Link 1002 at Wed Oct 19 22:52:16 2011, MaxMem=  128000000 cpu:     230.6
 (Enter /home/foresman/gdv/l601.exe)
 Copying SCF densities to generalized density rwf, IOpCl= 0 IROHF=0.

 **********************************************************************

            Population analysis using the SCF density.

 **********************************************************************

 Orbital symmetries:
       Occupied  (A) (A) (A) (A) (A) (A) (A) (A) (A) (A) (A) (A)
                 (A) (A) (A) (A) (A) (A) (A) (A) (A) (A) (A) (A)
                 (A) (A) (A) (A) (A) (A) (A) (A) (A) (A) (A) (A)
                 (A) (A) (A) (A) (A) (A) (A) (A) (A) (A) (A) (A)
                 (A) (A) (A)
       Virtual   (A) (A) (A) (A) (A) (A) (A) (A) (A) (A) (A) (A)
                 (A) (A) (A) (A) (A) (A) (A) (A) (A) (A) (A) (A)
                 (A) (A) (A) (A) (A) (A) (A) (A) (A) (A) (A) (A)
                 (A) (A) (A) (A) (A) (A) (A) (A) (A) (A) (A) (A)
                 (A) (A) (A) (A) (A) (A) (A) (A) (A) (A) (A) (A)
                 (A) (A) (A) (A) (A) (A) (A) (A) (A) (A) (A) (A)
                 (A) (A) (A) (A) (A) (A) (A) (A) (A) (A) (A) (A)
                 (A) (A) (A) (A) (A) (A) (A) (A) (A) (A) (A) (A)
                 (A) (A) (A) (A)
 The electronic state is 1-A.
 Alpha  occ. eigenvalues --  -19.05927 -19.03534 -18.99752 -14.27999 -10.26088
 Alpha  occ. eigenvalues --  -10.18807 -10.18578 -10.16473 -10.16168 -10.13432
 Alpha  occ. eigenvalues --  -10.10988 -10.10192 -10.10147  -1.07952  -1.01715
 Alpha  occ. eigenvalues --   -0.99608  -0.94419  -0.81138  -0.78156  -0.74255
 Alpha  occ. eigenvalues --   -0.69035  -0.68650  -0.65611  -0.61129  -0.58442
 Alpha  occ. eigenvalues --   -0.54701  -0.51029  -0.49730  -0.48534  -0.45655
 Alpha  occ. eigenvalues --   -0.45106  -0.44218  -0.43664  -0.42865  -0.42123
 Alpha  occ. eigenvalues --   -0.40293  -0.39960  -0.39182  -0.38721  -0.37882
 Alpha  occ. eigenvalues --   -0.37180  -0.36184  -0.35782  -0.34020  -0.33991
 Alpha  occ. eigenvalues --   -0.32278  -0.31772  -0.26872  -0.26089  -0.24487
 Alpha  occ. eigenvalues --   -0.23011
 Alpha virt. eigenvalues --    0.05576   0.08180   0.10095   0.11126   0.11858
 Alpha virt. eigenvalues --    0.12567   0.15419   0.16057   0.16778   0.17202
 Alpha virt. eigenvalues --    0.17387   0.17690   0.19012   0.19572   0.19830
 Alpha virt. eigenvalues --    0.20721   0.21300   0.21912   0.22348   0.23215
 Alpha virt. eigenvalues --    0.23952   0.24415   0.25367   0.26050   0.26568
 Alpha virt. eigenvalues --    0.28169   0.28556   0.29614   0.30080   0.42556
 Alpha virt. eigenvalues --    0.48861   0.64677   0.65697   0.65988   0.66385
 Alpha virt. eigenvalues --    0.68901   0.69031   0.69491   0.71190   0.74245
 Alpha virt. eigenvalues --    0.75019   0.75882   0.76773   0.77246   0.77684
 Alpha virt. eigenvalues --    0.78936   0.81256   0.82943   0.86149   0.87065
 Alpha virt. eigenvalues --    0.89411   0.93018   0.94237   0.95640   0.96823
 Alpha virt. eigenvalues --    0.98231   0.98556   1.00818   1.02532   1.03572
 Alpha virt. eigenvalues --    1.06437   1.06996   1.07051   1.08397   1.08686
 Alpha virt. eigenvalues --    1.09729   1.10029   1.11010   1.11945   1.12568
 Alpha virt. eigenvalues --    1.13830   1.16157   1.16184   1.17854   1.22494
 Alpha virt. eigenvalues --    1.28587   1.43958   1.53388   1.55844   1.57388
 Alpha virt. eigenvalues --    1.60871   1.63782   1.66644   1.71278   1.72369
 Alpha virt. eigenvalues --    1.73966   1.76989   1.81326   1.83385   1.93726
 Alpha virt. eigenvalues --    1.98755   1.98914   2.11056   2.13797   2.26366
 Alpha virt. eigenvalues --    2.34806   2.84206   3.10087   3.31315   3.40793
          Condensed to atoms (all electrons):
              1          2          3          4          5          6
     1  C    5.286275   0.249130   0.289463   0.249198   0.196384  -0.050397
     2  C    0.249130   5.473863  -0.081684  -0.084657  -0.036022  -0.008018
     3  C    0.289463  -0.081684   5.352810  -0.082029  -0.038901   0.003837
     4  C    0.249198  -0.084657  -0.082029   5.474717  -0.036086  -0.007883
     5  O    0.196384  -0.036022  -0.038901  -0.036086   8.328075   0.231138
     6  C   -0.050397  -0.008018   0.003837  -0.007883   0.231138   4.283983
     7  O    0.001281  -0.009576   0.000063  -0.009749  -0.045527   0.470312
     8  N    0.002791  -0.000296  -0.000044  -0.000284  -0.078946   0.194923
     9  C   -0.000071   0.000004   0.000001   0.000004   0.001543  -0.049004
    10  C    0.000001   0.000000   0.000000   0.000000  -0.000027   0.006162
    11  C   -0.000004   0.000000   0.000000   0.000000   0.000254   0.002496
    12  C   -0.000096   0.000030  -0.000046   0.000019   0.009305  -0.027086
    13  O    0.000000   0.000000   0.000000   0.000000   0.000000  -0.000004
    14  H    0.000000   0.000000   0.000000   0.000000   0.000000  -0.000005
    15  H   -0.035735   0.340680  -0.000438   0.000832   0.001569   0.000337
    16  H   -0.036504   0.343323   0.003580  -0.004080  -0.003607   0.001932
    17  H   -0.040239   0.358319  -0.003146   0.004338   0.001026   0.000482
    18  H   -0.044592   0.001163   0.350689   0.001218   0.001896  -0.000039
    19  H   -0.038365  -0.003565   0.360432   0.004527   0.001950  -0.000003
    20  H   -0.038427   0.004531   0.360376  -0.003544   0.001979  -0.000006
    21  H   -0.035808   0.000838  -0.000401   0.340326   0.001570   0.000335
    22  H   -0.040260   0.004343  -0.003145   0.358145   0.001045   0.000459
    23  H   -0.036541  -0.004005   0.003569   0.342753  -0.003625   0.001934
    24  H    0.000001   0.000001   0.000000  -0.000002   0.000046   0.000365
    25  H    0.000002  -0.000001   0.000000   0.000000  -0.000005  -0.001519
    26  H    0.000000   0.000000   0.000000   0.000000   0.000000  -0.000035
    27  H    0.000000   0.000000   0.000000   0.000000   0.000000  -0.000161
    28  H    0.000000   0.000000   0.000000   0.000000   0.000001  -0.000185
    29  H   -0.000006   0.000002   0.000002  -0.000005   0.000932  -0.002216
    30  H   -0.000058  -0.000015   0.000028   0.000012   0.004793  -0.001406
              7          8          9         10         11         12
     1  C    0.001281   0.002791  -0.000071   0.000001  -0.000004  -0.000096
     2  C   -0.009576  -0.000296   0.000004   0.000000   0.000000   0.000030
     3  C    0.000063  -0.000044   0.000001   0.000000   0.000000  -0.000046
     4  C   -0.009749  -0.000284   0.000004   0.000000   0.000000   0.000019
     5  O   -0.045527  -0.078946   0.001543  -0.000027   0.000254   0.009305
     6  C    0.470312   0.194923  -0.049004   0.006162   0.002496  -0.027086
     7  O    8.142360  -0.070558   0.004355   0.000186  -0.000020   0.001112
     8  N   -0.070558   7.445514   0.238467  -0.049858  -0.038861   0.191681
     9  C    0.004355   0.238467   5.230901   0.202106  -0.071112  -0.062286
    10  C    0.000186  -0.049858   0.202106   5.643206   0.189110  -0.130243
    11  C   -0.000020  -0.038861  -0.071112   0.189110   5.274795   0.170949
    12  C    0.001112   0.191681  -0.062286  -0.130243   0.170949   5.381902
    13  O    0.000000   0.000587   0.001563  -0.036806   0.288551  -0.039637
    14  H    0.000000  -0.000023   0.000112  -0.005529  -0.056160  -0.004294
    15  H    0.000080   0.000001   0.000000   0.000000   0.000000   0.000000
    16  H    0.023546   0.000139   0.000002   0.000000   0.000000  -0.000009
    17  H    0.000032  -0.000007   0.000000   0.000000   0.000000  -0.000002
    18  H    0.000002   0.000000   0.000000   0.000000   0.000000   0.000001
    19  H    0.000001  -0.000006   0.000000   0.000000   0.000000   0.000001
    20  H    0.000001  -0.000006   0.000000   0.000000   0.000000   0.000025
    21  H    0.000085   0.000001   0.000000   0.000000   0.000000   0.000000
    22  H    0.000036  -0.000008   0.000000   0.000000   0.000000   0.000003
    23  H    0.024005   0.000145   0.000001   0.000000   0.000000  -0.000011
    24  H    0.005077  -0.038789   0.366210  -0.024948   0.003294   0.002173
    25  H    0.000660  -0.042048   0.368234  -0.044284  -0.001790   0.002489
    26  H    0.000000   0.002084  -0.031688   0.374064  -0.029734   0.004652
    27  H    0.000002   0.001777  -0.037895   0.357473  -0.045196  -0.000410
    28  H    0.000000   0.002841   0.004528  -0.054885   0.370193  -0.053606
    29  H    0.000011  -0.040436   0.003581  -0.002177  -0.044528   0.351230
    30  H    0.000020  -0.035600   0.002118   0.004791  -0.025707   0.366633
             13         14         15         16         17         18
     1  C    0.000000   0.000000  -0.035735  -0.036504  -0.040239  -0.044592
     2  C    0.000000   0.000000   0.340680   0.343323   0.358319   0.001163
     3  C    0.000000   0.000000  -0.000438   0.003580  -0.003146   0.350689
     4  C    0.000000   0.000000   0.000832  -0.004080   0.004338   0.001218
     5  O    0.000000   0.000000   0.001569  -0.003607   0.001026   0.001896
     6  C   -0.000004  -0.000005   0.000337   0.001932   0.000482  -0.000039
     7  O    0.000000   0.000000   0.000080   0.023546   0.000032   0.000002
     8  N    0.000587  -0.000023   0.000001   0.000139  -0.000007   0.000000
     9  C    0.001563   0.000112   0.000000   0.000002   0.000000   0.000000
    10  C   -0.036806  -0.005529   0.000000   0.000000   0.000000   0.000000
    11  C    0.288551  -0.056160   0.000000   0.000000   0.000000   0.000000
    12  C   -0.039637  -0.004294   0.000000  -0.000009  -0.000002   0.000001
    13  O    8.115543   0.244660   0.000000   0.000000   0.000000   0.000000
    14  H    0.244660   0.474180   0.000000   0.000000   0.000000   0.000000
    15  H    0.000000   0.000000   0.552868  -0.020821  -0.024636   0.001646
    16  H    0.000000   0.000000  -0.020821   0.483953  -0.023385   0.000009
    17  H    0.000000   0.000000  -0.024636  -0.023385   0.534863   0.000123
    18  H    0.000000   0.000000   0.001646   0.000009   0.000123   0.548581
    19  H    0.000000   0.000000   0.000157  -0.000046   0.003756  -0.023853
    20  H    0.000000   0.000000  -0.000082  -0.000085  -0.000048  -0.023907
    21  H    0.000000   0.000000   0.001181   0.000223  -0.000068   0.001645
    22  H    0.000000   0.000000  -0.000069   0.000009  -0.000098   0.000122
    23  H    0.000000   0.000000   0.000213   0.002903   0.000008   0.000012
    24  H   -0.000011  -0.000002   0.000000  -0.000004   0.000000   0.000000
    25  H   -0.000012   0.000002   0.000000   0.000004   0.000000   0.000000
    26  H    0.001087  -0.000288   0.000000   0.000000   0.000000   0.000000
    27  H   -0.000881   0.005857   0.000000   0.000000   0.000000   0.000000
    28  H   -0.032712   0.006405   0.000000   0.000000   0.000000   0.000000
    29  H    0.000282   0.005898   0.000000   0.000000   0.000000   0.000000
    30  H    0.001152  -0.000231   0.000000   0.000003   0.000019   0.000000
             19         20         21         22         23         24
     1  C   -0.038365  -0.038427  -0.035808  -0.040260  -0.036541   0.000001
     2  C   -0.003565   0.004531   0.000838   0.004343  -0.004005   0.000001
     3  C    0.360432   0.360376  -0.000401  -0.003145   0.003569   0.000000
     4  C    0.004527  -0.003544   0.340326   0.358145   0.342753  -0.000002
     5  O    0.001950   0.001979   0.001570   0.001045  -0.003625   0.000046
     6  C   -0.000003  -0.000006   0.000335   0.000459   0.001934   0.000365
     7  O    0.000001   0.000001   0.000085   0.000036   0.024005   0.005077
     8  N   -0.000006  -0.000006   0.000001  -0.000008   0.000145  -0.038789
     9  C    0.000000   0.000000   0.000000   0.000000   0.000001   0.366210
    10  C    0.000000   0.000000   0.000000   0.000000   0.000000  -0.024948
    11  C    0.000000   0.000000   0.000000   0.000000   0.000000   0.003294
    12  C    0.000001   0.000025   0.000000   0.000003  -0.000011   0.002173
    13  O    0.000000   0.000000   0.000000   0.000000   0.000000  -0.000011
    14  H    0.000000   0.000000   0.000000   0.000000   0.000000  -0.000002
    15  H    0.000157  -0.000082   0.001181  -0.000069   0.000213   0.000000
    16  H   -0.000046  -0.000085   0.000223   0.000009   0.002903  -0.000004
    17  H    0.003756  -0.000048  -0.000068  -0.000098   0.000008   0.000000
    18  H   -0.023853  -0.023907   0.001645   0.000122   0.000012   0.000000
    19  H    0.524328  -0.025903  -0.000082  -0.000048  -0.000085   0.000000
    20  H   -0.025903   0.524739   0.000155   0.003757  -0.000046   0.000000
    21  H   -0.000082   0.000155   0.553458  -0.024696  -0.020668   0.000000
    22  H   -0.000048   0.003757  -0.024696   0.536149  -0.023338   0.000000
    23  H   -0.000085  -0.000046  -0.020668  -0.023338   0.483802   0.000010
    24  H    0.000000   0.000000   0.000000   0.000000   0.000010   0.502421
    25  H    0.000000   0.000000   0.000000   0.000000  -0.000001  -0.037729
    26  H    0.000000   0.000000   0.000000   0.000000   0.000000   0.000420
    27  H    0.000000   0.000000   0.000000   0.000000   0.000000  -0.004982
    28  H    0.000000   0.000000   0.000000   0.000000   0.000000  -0.000071
    29  H   -0.000006   0.000025   0.000000   0.000006   0.000003   0.000210
    30  H    0.000115  -0.000014   0.000000  -0.000001  -0.000001  -0.000111
             25         26         27         28         29         30
     1  C    0.000002   0.000000   0.000000   0.000000  -0.000006  -0.000058
     2  C   -0.000001   0.000000   0.000000   0.000000   0.000002  -0.000015
     3  C    0.000000   0.000000   0.000000   0.000000   0.000002   0.000028
     4  C    0.000000   0.000000   0.000000   0.000000  -0.000005   0.000012
     5  O   -0.000005   0.000000   0.000000   0.000001   0.000932   0.004793
     6  C   -0.001519  -0.000035  -0.000161  -0.000185  -0.002216  -0.001406
     7  O    0.000660   0.000000   0.000002   0.000000   0.000011   0.000020
     8  N   -0.042048   0.002084   0.001777   0.002841  -0.040436  -0.035600
     9  C    0.368234  -0.031688  -0.037895   0.004528   0.003581   0.002118
    10  C   -0.044284   0.374064   0.357473  -0.054885  -0.002177   0.004791
    11  C   -0.001790  -0.029734  -0.045196   0.370193  -0.044528  -0.025707
    12  C    0.002489   0.004652  -0.000410  -0.053606   0.351230   0.366633
    13  O   -0.000012   0.001087  -0.000881  -0.032712   0.000282   0.001152
    14  H    0.000002  -0.000288   0.005857   0.006405   0.005898  -0.000231
    15  H    0.000000   0.000000   0.000000   0.000000   0.000000   0.000000
    16  H    0.000004   0.000000   0.000000   0.000000   0.000000   0.000003
    17  H    0.000000   0.000000   0.000000   0.000000   0.000000   0.000019
    18  H    0.000000   0.000000   0.000000   0.000000   0.000000   0.000000
    19  H    0.000000   0.000000   0.000000   0.000000  -0.000006   0.000115
    20  H    0.000000   0.000000   0.000000   0.000000   0.000025  -0.000014
    21  H    0.000000   0.000000   0.000000   0.000000   0.000000   0.000000
    22  H    0.000000   0.000000   0.000000   0.000000   0.000006  -0.000001
    23  H   -0.000001   0.000000   0.000000   0.000000   0.000003  -0.000001
    24  H   -0.037729   0.000420  -0.004982  -0.000071   0.000210  -0.000111
    25  H    0.539531  -0.001568   0.003318   0.001057  -0.000224   0.000220
    26  H   -0.001568   0.498578  -0.024962  -0.004200  -0.000138  -0.000049
    27  H    0.003318  -0.024962   0.546738   0.003873   0.001357  -0.000018
    28  H    0.001057  -0.004200   0.003873   0.532597   0.003628  -0.004073
    29  H   -0.000224  -0.000138   0.001357   0.003628   0.566209  -0.037505
    30  H    0.000220  -0.000049  -0.000018  -0.004073  -0.037505   0.498010
 Mulliken charges:
              1
     1  C    0.122576
     2  C   -0.548386
     3  C   -0.515015
     4  C   -0.547771
     5  O   -0.540759
     6  C    0.949273
     7  O   -0.537800
     8  N   -0.685183
     9  C   -0.171673
    10  C   -0.428342
    11  C    0.013467
    12  C   -0.164476
    13  O   -0.543361
    14  H    0.329419
    15  H    0.182219
    16  H    0.228916
    17  H    0.188663
    18  H    0.185283
    19  H    0.196694
    20  H    0.196480
    21  H    0.181908
    22  H    0.187589
    23  H    0.228961
    24  H    0.226421
    25  H    0.213663
    26  H    0.211775
    27  H    0.194111
    28  H    0.224608
    29  H    0.193866
    30  H    0.226874
 Sum of Mulliken charges =   0.00000
 Mulliken charges with hydrogens summed into heavy atoms:
              1
     1  C    0.122576
     2  C    0.051411
     3  C    0.063443
     4  C    0.050686
     5  O   -0.540759
     6  C    0.949273
     7  O   -0.537800
     8  N   -0.685183
     9  C    0.268411
    10  C   -0.022455
    11  C    0.238076
    12  C    0.256264
    13  O   -0.213942
 Sum of Mulliken charges with hydrogens summed into heavy atoms =   0.00000
 APT charges:
              1
     1  C    0.651767
     2  C   -0.108019
     3  C   -0.028458
     4  C   -0.107793
     5  O   -0.963135
     6  C    1.435343
     7  O   -0.787232
     8  N   -0.872170
     9  C    0.356313
    10  C   -0.035624
    11  C    0.500194
    12  C    0.249057
    13  O   -0.513739
    14  H    0.212618
    15  H   -0.000340
    16  H    0.079826
    17  H    0.001504
    18  H   -0.001140
    19  H    0.008824
    20  H    0.008419
    21  H   -0.000531
    22  H    0.000640
    23  H    0.080073
    24  H   -0.005388
    25  H   -0.056451
    26  H    0.001459
    27  H   -0.019496
    28  H   -0.025660
    29  H   -0.058770
    30  H   -0.002094
 Sum of APT charges =   0.00000
 APT charges with hydrogens summed into heavy atoms:
              1
     1  C    0.651767
     2  C   -0.027029
     3  C   -0.012354
     4  C   -0.027611
     5  O   -0.963135
     6  C    1.435343
     7  O   -0.787232
     8  N   -0.872170
     9  C    0.294474
    10  C   -0.053661
    11  C    0.474534
    12  C    0.188194
    13  O   -0.301121
 Sum of APT charges with hydrogens summed into heavy atoms =   0.00000
 Electronic spatial extent (au):  <R**2>=           3242.8412
 Charge=              0.0000 electrons
 Dipole moment (field-independent basis, Debye):
    X=             -0.5072    Y=              0.9409    Z=              1.0296  Tot=              1.4842
 Quadrupole moment (field-independent basis, Debye-Ang):
   XX=            -77.1611   YY=            -84.8884   ZZ=            -75.5413
   XY=              8.6377   XZ=             -4.3872   YZ=              2.3057
 Traceless Quadrupole moment (field-independent basis, Debye-Ang):
   XX=              2.0358   YY=             -5.6915   ZZ=              3.6557
   XY=              8.6377   XZ=             -4.3872   YZ=              2.3057
 Octapole moment (field-independent basis, Debye-Ang**2):
  XXX=             36.4111  YYY=              7.5438  ZZZ=              1.7077  XYY=             -5.9883
  XXY=            -20.9011  XXZ=             18.1558  XZZ=            -15.0220  YZZ=              4.7791
  YYZ=              4.8045  XYZ=            -10.5837
 Hexadecapole moment (field-independent basis, Debye-Ang**3):
 XXXX=          -3293.3902 YYYY=           -736.0671 ZZZZ=           -283.5494 XXXY=             89.5381
 XXXZ=            -73.4772 YYYX=              4.1807 YYYZ=              8.5880 ZZZX=             -9.0991
 ZZZY=              4.8528 XXYY=           -687.4262 XXZZ=           -549.3533 YYZZ=           -154.4673
 XXYZ=             43.6526 YYXZ=            -18.8805 ZZXY=            -22.8567
 N-N= 8.707880037014D+02 E-N=-3.210950597992D+03  KE= 6.248445802946D+02
  Exact polarizability: 127.990   0.230  97.632  -0.644   1.917  84.408
 Approx polarizability: 151.102  -9.251 147.343   0.418   2.616 117.203
 Calculating spin-rotation constants.
 Leave Link  601 at Wed Oct 19 22:52:20 2011, MaxMem=  128000000 cpu:      32.1
 (Enter /home/foresman/gdv/l701.exe)
 Compute integral second derivatives.
 ... and contract with generalized density number  0.
 Leave Link  701 at Wed Oct 19 22:52:21 2011, MaxMem=  128000000 cpu:       1.3
 (Enter /home/foresman/gdv/l702.exe)
 L702 exits ... SP integral derivatives will be done elsewhere.
 Leave Link  702 at Wed Oct 19 22:52:21 2011, MaxMem=  128000000 cpu:       0.3
 (Enter /home/foresman/gdv/l703.exe)
 Compute integral second derivatives, UseDBF=F ICtDFT=           0.
 Integral derivatives from FoFJK, PRISM(SPDF).
 Calling FoFJK, ICntrl=    100127 FMM=F ISym2X=0 I1Cent= 0 IOpClX= 0 NMat=1 NMatS=1 NMatT=0.
 FoFJK:  IHMeth= 1 ICntrl=  100127 DoSepK=F KAlg= 0 I1Cent=   0 FoldK=F
 IRaf=       0 NMat=   1 IRICut=       1 DoRegI=T DoRafI=F ISym2E= 0.
 FoFCou: FMM=F IPFlag=           0 FMFlag=      100000 FMFlg1=         800
         NFxFlg=           0 DoJE=F BraDBF=F KetDBF=F FulRan=T
         wScrn=  0.000000 ICntrl=  100127 IOpCl=  0 I1Cent=           0 NGrid=           0
         NMat0=    1 NMatS0=      1 NMatT0=    0 NMatD0=    1 NMtDS0=    0 NMtDT0=    0
 Symmetry not used in FoFCou.
 Leave Link  703 at Wed Oct 19 22:52:54 2011, MaxMem=  128000000 cpu:     268.6
 (Enter /home/foresman/gdv/l716.exe)
 Dipole        =-1.99558712D-01 3.70185496D-01 4.05080312D-01
 Polarizability= 1.27990417D+02 2.30288553D-01 9.76321562D+01
                -6.44131991D-01 1.91734322D+00 8.44082252D+01
 AAT           =-2.24560521D-03-1.97061639D-02-1.09199392D-01
                -3.59225022D-03-5.48917745D-03 3.68769236D-01
                 1.16618771D-01-3.46257533D-01 6.14360762D-04
                -5.38588975D-02 1.55151106D-01-1.38798562D-01
                -1.62106942D-01 1.21521545D-01-2.16118812D-01
                 2.01189366D-02 2.08467783D-01-8.05970354D-02
                -1.21478037D-03 7.37023988D-04 1.89037712D-01
                 1.92799227D-03 1.13421600D-03-1.70587414D-01
                -1.10988690D-01 8.82466861D-03-5.97159067D-04
                 6.01223054D-02-1.51169584D-01-1.40848338D-01
                 1.67750001D-01-1.24013949D-01-2.14264954D-01
                 2.17554633D-02 2.01549342D-01 7.68159365D-02
                 8.96513787D-03 3.38547992D-02 2.36404078D-01
                 7.93123537D-04 7.50215686D-03-2.68307029D-01
                -5.76279560D-01 3.47976820D-01 1.11026899D-03
                -5.47824789D-02-7.97920079D-02 1.00685734D+00
                 2.17677385D-02 9.52280377D-03-1.60198281D-01
                -2.60116335D-01-9.66317985D-02 4.73761093D-02
                 4.97692304D-03 2.04124884D-02-1.19399686D+00
                -2.73634944D-02-3.56206701D-02 4.17898950D-02
                 1.07264913D+00 3.95356819D-01 1.39378371D-02
                 6.00144515D-02 7.29122080D-02-5.47546556D-01
                -2.29769955D-02-4.94611100D-02 3.94769311D-01
                 1.02328532D-01-4.13345754D-01 2.74493561D-02
                -2.23725943D-02 7.71299073D-02 1.04862599D-01
                -6.33578699D-02 2.03699400D-02-1.49928411D-01
                 6.28429734D-04 2.12154896D-01-9.70829157D-02
                -1.82722449D-02 3.14614533D-02-6.12745577D-02
                 4.09181928D-02 7.13008412D-02 3.86008037D-01
                 9.31304688D-02-1.14674758D-02-1.02212705D-01
                -1.35005747D-01-2.66654047D-01-1.38474094D-01
                 1.27150038D-01 2.16191135D-01-9.91668808D-01
                 1.52697002D-01 4.64982471D-01 3.21505236D-02
                -1.43878040D-02-5.77682813D-02 5.98245286D-02
                 5.30033701D-02 2.99166211D-02-2.89565086D-01
                -8.79649356D-02 2.88624617D-01-4.58077261D-02
                 1.36282682D-01 1.77240386D-01 5.23952318D-01
                 3.03595740D-02-1.37688381D-01 1.55442563D+00
                -2.85240079D-01-3.93366182D-01 3.87660696D-02
                -6.19878110D-02 3.21861156D-02-3.45926217D-01
                -2.24733921D-01 6.01692363D-02-6.72799253D-01
                -6.14770506D-02-1.15106648D-01 7.72137480D-02
                -2.55302775D-03 1.27492370D-01-6.31755817D-02
                 3.94946428D-02 1.28518448D-02 2.68630179D-01
                -3.36209802D-03-2.29673591D-01-1.05164942D-02
                 5.25237439D-02-3.77666568D-02 2.59674246D-01
                -5.71073612D-02 5.09871064D-02-1.41001110D-01
                -2.07349187D-01-5.22946485D-02-1.30054340D-01
                 5.36999284D-02-4.32893770D-02-1.21052504D-02
                 9.74337720D-02-1.84624118D-01-2.72475143D-02
                 1.69607719D-01 2.36335468D-01 8.20177102D-02
                -4.28358897D-03 7.94736960D-03 1.20837158D-01
                -4.11625822D-03 2.66436897D-04 2.50484233D-01
                 8.09374354D-02-2.66288916D-01 4.55675094D-03
                -7.18813105D-02-4.09571899D-02-5.08135399D-02
                 2.01805894D-01-9.14940837D-02-7.91859306D-02
                -4.96118857D-02 1.61672251D-01 2.10847894D-01
                 7.62931908D-02 3.20843150D-02-3.93256317D-02
                -1.98155420D-01 8.99376388D-02-8.55077107D-02
                -4.22142883D-02 1.62805038D-01-2.13387701D-01
                 5.56717153D-03-1.13377766D-01-6.35612540D-02
                -4.60929740D-02-1.27455295D-02 2.66385261D-01
                -3.72553619D-03-2.31580377D-01 8.97424465D-03
                -5.84970983D-02 3.14919619D-02-1.09701402D-02
                -9.55712678D-02 1.83819785D-01-2.97628095D-02
                 1.69210157D-01 2.39924359D-01-7.55717415D-02
                -5.88917336D-02 3.07986635D-02 2.55364840D-01
                 6.24059472D-02-4.85403399D-02-1.38480661D-01
                -2.15964827D-01-5.45584630D-02 1.32062481D-01
                 7.06254848D-02 1.10739616D-01 9.54645122D-02
                -1.69512981D-01 2.44048354D-02 5.44892014D-02
                -3.79038039D-04-5.43443039D-02-1.42776145D-01
                -2.37358377D-02-1.33547148D-01 4.39259886D-02
                 1.91312555D-01-1.31304457D-02-4.87505375D-02
                 1.30094573D-01-1.17284194D-01 9.14797549D-02
                 3.63291174D-02-1.53047054D-01 1.47628491D-01
                 9.10375987D-02-5.31265880D-02-1.72760416D-01
                -5.34159451D-02 1.48818776D-01 2.78108012D-02
[...]
 49099,-0.00224572,0.00047197,-0.00020596,0.00013267,-0.00006688,0.0001
 4854,-0.00002489,0.00000649,-0.00000765,-0.00004490,-0.00004375,-0.000
 04489,-0.00001117,0.00001501,0.00001043,0.00000362,-0.00000794,0.00000
 121,-0.00000868,0.00001385,0.00000226,-0.00000539,0.00000198,-0.000007
 54,-0.00002377,0.00000114,0.00003500,0.00000714,0.00000031,-0.00000053
 ,0.00000161,-0.00002337,0.00000704,-0.01817385,0.05360425,0.00001923,-
 0.00013427,-0.00003954,0.00000968,-0.00000694,-0.00000791,0.00000554,0
 .00000533,-0.00000282,0.00002052,0.00004333,-0.00001588,-0.00046022,0.
 00005892,-0.00045915,0.00076885,-0.00009556,0.00147459,-0.00076712,0.0
 0064926,-0.00105001,-0.01222645,0.00189477,0.00999650,0.13304380,-0.01
 245316,-0.15840751,-0.00483940,-0.00002402,0.00172974,-0.00142629,-0.0
 0001095,0.00000428,-0.00109341,0.00107379,-0.00041272,-0.00047505,-0.0
 0016892,0.00020181,0.00008262,0.00004544,0.00006160,0.00000197,0.00000
 118,0.00000326,0.00001510,0.00001137,-0.00000219,-0.00000815,0.0000029
 7,-0.00000242,-0.00000059,0.00000543,0.00000019,-0.00000002,-0.0000043
 1,-0.00000091,-0.00000077,-0.00000064,0.00000299,0.00000462,0.00000135
 ,-0.00001660,-0.00001556,0.00000396,-0.00000759,-0.00000992,0.00000485
 ,0.00002362,-0.13777771,0.01035080,0.16697756,-0.00004929,-0.00045613,
 0.00032055,0.00005829,0.00013318,-0.00005312,0.00003369,0.00005935,-0.
 00002316,0.00003434,0.00007699,-0.00001559,-0.00056753,0.00116552,-0.0
 0020819,-0.00166327,-0.00364250,0.00034966,0.00144188,0.00113944,-0.00
 056008,-0.01044682,0.00793084,-0.02000432,-0.07561213,-0.01567908,-0.0
 6822293,-0.00573415,-0.00427009,-0.01812750,0.00108171,0.00033120,-0.0
 0135210,0.00033203,0.00055168,-0.00156416,-0.00031248,-0.00019812,0.00
 054512,0.00015845,0.00014785,0.00016267,0.00000393,0.00005150,0.000032
 67,-0.00002400,-0.00008450,-0.00004341,-0.00002820,0.00000076,0.000001
 69,-0.00001875,0.00002794,-0.00001243,0.00000285,-0.00001230,0.0000040
 0,0.00000413,-0.00001735,0.00001090,0.00000398,0.00002671,-0.00003493,
 -0.00002277,-0.00000777,0.00000249,-0.00004248,-0.00005683,0.00008761,
 0.00936091,0.00431212,0.02612189,0.08400908,0.00016207,0.00053579,-0.0
 0051547,-0.00004235,-0.00020515,0.00006865,-0.00004756,-0.00009798,0.0
 0002420,-0.00000711,-0.00005399,-0.00001202,0.00068858,-0.00203163,-0.
 00006183,0.00502272,0.00541042,0.00079760,-0.00260092,0.00030224,-0.00
 095901,0.01624501,-0.00719951,0.02985192,-0.01560811,-0.05280001,-0.04
 136390,-0.00856822,-0.00680295,-0.02766537,0.00084298,-0.00058887,-0.0
 0036763,-0.00163920,-0.00114427,0.00162419,-0.00058815,0.00035468,0.00
 030681,0.00042927,-0.00020184,0.00018142,-0.00002195,-0.00006298,-0.00
 005513,0.00001796,0.00004492,0.00005052,0.00003257,0.00000055,-0.00000
 004,0.00002892,-0.00003448,0.00002098,-0.00000791,0.00001579,-0.000002
 90,-0.00001096,0.00002294,-0.00001385,-0.00001783,-0.00002462,0.000026
 84,0.00000977,0.00001302,-0.00001978,0.00000284,0.00003675,-0.00002530
 ,-0.00156151,0.00103657,-0.00169939,0.01014276,0.06512721,-0.00006608,
 -0.00042437,0.00014280,0.00001922,0.00010345,-0.00002888,0.00002519,0.
 00006027,-0.00000848,0.00000920,0.00007545,-0.00000503,-0.00011252,0.0
 0099443,-0.00044357,-0.00318236,-0.00321636,0.00000094,0.00195077,-0.0
 0002892,0.00067880,-0.00693372,0.00918912,-0.00169741,-0.06838514,-0.0
 4013845,-0.27626653,0.00109157,-0.00056259,0.00019116,-0.00009561,0.00
 053141,-0.00002533,0.00109190,-0.00002064,-0.00150879,-0.00005257,-0.0
 0016834,0.00013162,0.00006811,0.00007867,0.00000317,0.00001406,0.00003
 046,0.00003205,-0.00000597,-0.00004664,-0.00004805,-0.00002952,0.00000
 411,0.00000480,-0.00001617,0.00002569,-0.00001045,-0.00000251,-0.00001
 405,0.00000398,0.00001638,-0.00001635,0.00001881,0.00000895,0.00003284
 ,-0.00002782,0.00000334,-0.00001495,0.00002940,-0.00003220,-0.00006031
 ,0.00003197,-0.00633768,-0.00503573,-0.02135642,0.08191288,0.03932810,
 0.29777481,0.00012303,0.00004705,0.00002417,0.00000121,0.00000352,0.00
 000526,-0.00002212,-0.00004064,0.00001458,0.00000113,-0.00000329,-0.00
 000261,0.00014707,-0.00038322,0.00015423,0.00083609,-0.00026447,-0.000
 21240,0.00010901,-0.00001404,0.00001750,-0.00330814,-0.00412048,0.0002
 7844,0.00654489,-0.01620304,0.01485435,-0.06404197,0.04832556,-0.04321
 324,-0.00714957,0.02541657,-0.02079079,-0.00539011,0.00214349,0.002309
 18,0.00166986,-0.00242387,0.00091637,-0.00014641,0.00034486,0.00005246
 ,0.00000144,-0.00000040,-0.00000150,0.00000387,0.00001268,0.00000285,0
 .00000030,-0.00000431,-0.00000544,0.00002061,-0.00000098,0.00000046,0.
 00000424,-0.00001107,-0.00000937,-0.00000082,-0.00000235,0.00001141,-0
 .00000041,-0.00000061,0.00000206,-0.00000127,0.00000024,0.00000315,0.0
 0000558,0.00000784,-0.00000706,-0.00052709,-0.00001012,0.00025023,0.00
 117800,0.00090331,-0.00028867,0.06854695,0.00008615,0.00039108,-0.0000
 6435,-0.00002109,-0.00006639,0.00002426,-0.00003024,-0.00006944,0.0000
 1722,-0.00002559,-0.00009146,0.00001793,0.00007432,-0.00104676,0.00039
 588,0.00134376,0.00066374,-0.00048690,-0.00043751,-0.00022988,0.000051
 13,-0.00221533,-0.00408440,0.00049776,0.00879909,-0.01471786,0.0141147
 6,0.04821973,-0.19642208,0.12559801,0.00066300,-0.00911863,0.00685278,
 0.00074177,-0.00105059,-0.00100758,0.00054358,0.00113866,-0.00029095,0
 .00010569,-0.00008496,-0.00014642,-0.00000657,-0.00003214,-0.00001061,
 0.00001482,0.00004893,0.00001839,0.00001045,0.00000983,0.00000151,0.00
 001907,-0.00002574,0.00001076,-0.00000398,0.00001633,-0.00000256,-0.00
 000460,0.00001331,-0.00000806,-0.00001299,-0.00002080,0.00003147,0.000
 00908,0.00000803,-0.00000619,0.00002383,0.00003126,-0.00003773,-0.0005
 5549,-0.00047350,0.00005903,0.00035876,0.00079962,-0.00074183,-0.05397
 909,0.21458904,0.00000059,-0.00008372,0.00000049,0.00000170,0.00000074
 ,0.00000791,-0.00000470,-0.00000310,-0.00000108,0.00000330,0.00000588,
 -0.00001100,-0.00008542,-0.00009946,0.00004111,0.00020653,-0.00045356,
 0.00021901,0.00005118,0.00008929,-0.00002645,0.00038639,-0.00150811,0.
 00118801,0.00055884,-0.00333287,0.00023224,-0.04324939,0.12796356,-0.1
 5858641,0.00328767,-0.00778637,0.00453869,0.00152138,-0.00171835,0.000
 39681,-0.00071224,-0.00016535,-0.00010498,0.00022558,0.00026087,-0.000
 03888,-0.00000236,0.00000298,-0.00000416,-0.00000563,-0.00001364,-0.00
 000381,0.00000076,-0.00000218,0.00000074,0.00000254,0.00000141,0.00000
 062,0.00000044,-0.00000074,0.00000184,0.00000310,-0.00000237,0.0000013
 4,-0.00000199,0.00000753,0.00000105,0.00000298,-0.00000476,0.00000747,
 -0.00001072,-0.00001092,0.00000815,0.00002045,0.00026414,-0.00005700,0
 .00029357,-0.00004096,0.00082423,0.04610809,-0.13688048,0.16949578,0.0
 0003407,0.00010991,-0.00005708,-0.00001121,-0.00001788,0.00001113,-0.0
 0000895,-0.00001760,0.00000951,-0.00001079,-0.00002153,0.00000961,0.00
 010407,-0.00025812,0.00012984,0.00005140,0.00023225,-0.00021450,0.0000
 1903,-0.00003091,0.00017239,0.00009520,0.00069151,0.00046503,-0.004529
 68,-0.01059997,-0.02542247,-0.04629537,0.00048231,-0.00452493,-0.00387
 000,0.01295568,0.03370745,0.00057015,-0.00172247,0.00029088,0.00467466
 ,-0.00001196,-0.00013452,-0.00090992,-0.00034985,-0.00138294,-0.000000
 54,-0.00001181,0.,0.00000794,0.00001571,-0.00000351,-0.00000372,0.0000
 0736,0.00000329,0.00000511,-0.00000770,0.00000245,-0.00000440,0.000004
 76,0.00000010,0.00000208,0.00000391,-0.00000067,-0.00000195,-0.0000041
 3,0.00000882,0.00001027,0.00000020,0.00000496,0.00000767,0.00000639,-0
 .00002313,0.00066673,0.00096955,-0.00028667,-0.00184574,-0.00442837,0.
 00031294,-0.00045253,-0.00364881,-0.00822379,0.05683950,0.00002655,-0.
 00001860,-0.00003843,-0.00000331,-0.00000025,0.00000621,-0.00000725,-0
 .00001030,0.00000079,-0.00000667,0.00000077,-0.00000665,0.00003531,-0.
 00006212,0.00008013,-0.00030702,-0.00027841,0.00000013,0.00024211,-0.0
 0002543,0.00011422,-0.00043021,0.00107374,0.00091110,-0.00252583,-0.01
 024743,-0.02537869,0.00052341,-0.08085900,-0.07940674,-0.00089590,-0.0
 0548940,-0.01335200,-0.00013178,0.00056846,-0.00113445,-0.00103578,0.0
 0031014,0.00158526,0.00048398,0.00063442,0.00020657,0.00000119,-0.0000
 0258,0.00000285,0.00000593,0.00000182,-0.00000697,-0.00000727,0.000005
 79,0.00000426,0.00000492,0.00000111,0.00000134,-0.00000379,-0.00000015
 ,0.00000103,0.00000728,-0.00000253,0.00000767,0.00000125,0.00000825,0.
 00000416,0.00001012,-0.00000657,0.00001833,-0.00000434,-0.00000667,-0.
 00001041,0.00050977,0.00144165,0.00035976,-0.00195850,-0.00315583,0.00
 012203,0.00017250,0.01007894,0.02425460,0.00312260,0.08682026,0.000021
 03,0.00012602,-0.00005498,-0.00000627,-0.00002381,0.00000953,-0.000007
 98,-0.00001977,0.00000297,-0.00001267,-0.00002670,0.00000674,0.0000868
 7,-0.00028321,0.00015583,0.00021230,0.00018436,-0.00033186,-0.00006469
 ,-0.00009170,0.00008029,0.00038852,-0.00050053,0.00077810,-0.00041137,
 0.00088031,-0.00163101,-0.00765592,-0.07955366,-0.27499017,-0.00024060
 ,-0.00397515,-0.01195673,-0.00022474,0.00004212,0.00016440,-0.00035928
 ,0.00170281,0.00239790,0.00177662,-0.00006986,0.00030398,-0.00000214,-
 0.00001368,-0.00000003,0.00001007,0.00001788,0.00000066,-0.00000378,0.
 00000920,0.00000409,0.00000495,-0.00000855,0.00000365,-0.00000543,0.00
 000643,0.00000003,0.00000171,0.00000502,0.00000120,-0.00000307,-0.0000
 0586,0.00001027,0.00000753,0.00000233,0.00000535,0.00000766,0.00001050
 ,-0.00001983,-0.00038561,-0.00004206,0.00118999,0.00008302,-0.00005395
 ,0.00140671,0.00011843,-0.00824503,-0.01963397,0.00511121,0.09111953,0
 .30000199,0.00000248,-0.00002874,0.00002859,0.00000608,0.00000865,-0.0
 0000504,0.00000290,0.,-0.00000983,0.00000151,0.00000367,-0.00000417,-0
 .00007265,0.00003024,0.00000723,0.00009577,-0.00032070,-0.00001609,0.0
 0009756,0.00010091,0.00000816,0.00016174,0.00015629,-0.00056631,0.0014
 8849,0.00051328,0.00026369,-0.00405416,0.00729921,0.03054290,-0.050587
 41,0.00550749,0.03060373,0.00219858,0.00145802,-0.00277498,-0.00600983
 ,-0.01121527,-0.03230627,-0.00392288,-0.00352169,-0.00349625,-0.000000
 44,0.00000448,-0.00000029,-0.00000560,-0.00000994,0.00000116,0.0000028
 0,-0.00000312,0.00000097,-0.00000126,0.00000176,0.00000105,0.00000073,
 0.00000067,0.00000197,-0.00000054,-0.00000181,0.00000155,0.00000038,0.
 00000148,-0.00000153,-0.00000290,0.00000006,-0.00000072,-0.00000201,-0
 .00000213,0.00000785,-0.00003857,0.00015165,-0.00036009,-0.00041842,-0
 .00033297,-0.00035055,0.00142982,-0.00026107,-0.00059919,-0.00517516,0
 .00160885,0.00134411,0.06470501,-0.00001483,0.00006624,-0.00001230,-0.
 00001445,-0.00002002,0.00001803,-0.00000220,0.00000151,0.00001938,0.00
 000218,-0.00001124,0.00000625,-0.00016046,-0.00004823,-0.00015319,0.00
 012035,-0.00018435,0.00002922,-0.00015305,0.00001210,0.00001621,0.0012
 5259,0.00040125,-0.00110802,-0.00005148,-0.00001181,0.00012169,0.00455
 122,-0.00263207,-0.01680158,0.00380918,-0.05303770,-0.03103929,-0.0004
 4711,0.00042364,0.03363569,-0.00527020,-0.00756898,-0.02361565,-0.0033
 9963,-0.00161495,-0.00197941,-0.00000220,-0.00000329,-0.00001303,-0.00
 000804,-0.00000186,0.00000375,0.00001046,-0.00000981,-0.00000507,-0.00
 000401,-0.00000965,-0.00000424,0.00000395,0.00000422,0.00000226,-0.000
 00836,0.00001107,-0.00002296,-0.00000510,-0.00000735,0.00000114,0.0000
 0259,0.00000325,-0.00001830,0.00000130,0.00000203,-0.00000084,0.000023
 88,0.00010394,0.00010845,-0.00004662,0.00033847,0.00006341,-0.00097917
 ,0.00021305,-0.00017817,0.00259443,-0.00057481,-0.00087412,-0.00101259
 ,0.06707577,0.00000112,-0.00013817,0.00000970,0.00001848,0.00002647,-0
 .00001335,0.00000714,0.00001152,-0.00001605,0.00000490,0.00002757,-0.0
 0000858,0.00005643,0.00020932,0.00004992,0.00011758,-0.00023312,-0.000
 14524,0.00021578,0.00022034,0.00001894,0.00017310,0.00092444,0.0006415
 4,0.00035836,0.00000385,-0.00069861,0.00071312,-0.00108881,-0.00617147
 ,0.02233839,-0.03513974,-0.31037264,0.00089063,-0.00138253,-0.01580057
 ,-0.00383782,-0.00473621,-0.00892086,-0.00112298,-0.00019027,0.0027590
 2,0.00000137,0.00000946,0.00001020,0.00000114,-0.00001721,-0.00001306,
 -0.00001351,0.00000659,0.00000573,-0.00000051,0.00001221,-0.00000049,-
 0.00000348,-0.00000636,0.00000047,0.00000784,-0.00000934,0.00001738,0.
 00000466,0.00001282,-0.00000731,-0.00000020,-0.00000480,0.00001694,-0.
 00001014,-0.00001164,0.00000941,0.00023788,0.00018511,0.00022479,0.000
 49554,0.00020302,0.00021981,0.00012796,-0.00029278,0.00100643,0.000701
 40,-0.00010898,0.00129265,-0.02152054,0.03931012,0.33460000,0.00010745
 ,0.00068879,-0.00018438,-0.00007049,-0.00007414,0.00003860,-0.00006142
 ,-0.00010728,0.00001662,-0.00011163,-0.00018103,0.00001678,0.00178533,
 -0.00150838,0.00102090,0.00089639,0.00704358,-0.00433119,-0.00229277,-
 0.00122707,0.00143761,-0.02717373,-0.00948344,-0.02801994,-0.00036497,
 -0.00310229,-0.00176157,0.00029013,-0.00047043,-0.00035004,-0.00052213
 ,-0.00032424,0.00253149,-0.06400808,-0.00328946,-0.06516964,0.00061349
 ,0.00057399,0.00114839,0.00047647,0.00001570,-0.00026211,0.00001441,-0
 .00005737,-0.00000589,0.00005977,0.00014947,0.00004479,0.00001176,0.00
 000893,-0.00000297,0.00003869,-0.00002446,0.00001848,0.00000013,0.0000
 0645,-0.00000266,0.00002477,0.00000191,0.00001751,0.00001378,-0.000030
 07,0.00007973,0.00003819,-0.00000170,0.00005112,0.00008852,0.00012138,
 -0.00017544,-0.00013869,-0.00009349,-0.00013385,-0.00087630,0.00099600
 ,-0.00046901,0.00002363,0.00015957,0.00017459,0.00012932,0.00043231,0.
 00010414,-0.00004527,-0.00106833,0.00044330,0.08403022,0.00007407,-0.0
 0000733,0.00005782,0.00002887,0.00006385,-0.00006062,-0.00001374,-0.00
 006162,-0.00009261,-0.00005269,-0.00004120,-0.00000132,0.00123774,0.00
 057655,0.00067007,-0.00034929,0.00305100,-0.00249010,-0.00108053,-0.00
 071914,0.00080132,-0.00895262,-0.00079238,-0.00664659,0.00054428,-0.00
 174591,-0.00024670,-0.00121557,0.00111464,-0.00022770,0.00740503,0.000
 87578,0.03103320,-0.00205744,-0.05408317,-0.02376116,0.00185541,0.0039
 9394,-0.00092017,-0.00027845,-0.00092950,-0.00098960,0.00001518,0.0000
 0317,0.00004375,0.00003462,0.00006523,0.00001506,-0.00001694,0.0000259
 6,0.00001542,0.00003267,0.00003031,0.00003158,-0.00002235,-0.00000262,
 -0.00001723,0.00002452,-0.00003016,0.00010188,0.00002686,0.00000345,0.
 00001865,-0.00000151,0.00000132,0.00006104,0.00004078,0.00005992,-0.00
 007365,-0.00004924,-0.00000971,-0.00004511,-0.00006607,0.00039157,-0.0
 0017878,-0.00006479,-0.00012402,-0.00031050,0.00019589,-0.00028610,-0.
 00027879,0.00018606,-0.00438227,0.00206477,0.00882590,0.05475691,0.000
 05112,0.00031281,-0.00026896,0.00000199,-0.00009070,0.00002008,-0.0000
 2190,-0.00006325,-0.00005398,-0.00001396,-0.00004698,-0.00000142,0.000
 96081,-0.00065781,0.00080097,-0.00022592,0.00239263,-0.00038318,-0.000
 19244,-0.00063128,-0.00031262,-0.00448157,-0.00043581,0.00969148,0.000
 57899,-0.00041936,-0.00097338,0.00031207,-0.00037360,0.00029672,-0.004
 49352,-0.00255093,-0.01935222,-0.06503240,-0.02764597,-0.27428432,0.00
 092237,-0.00159331,0.00338956,0.00050392,0.00228428,0.00024587,-0.0000
 0711,-0.00004179,0.00000062,0.00004544,0.00007537,0.00002572,-0.000008
 15,0.00003376,0.00001319,0.00003257,0.00000552,0.00002362,-0.00001902,
 0.00000340,-0.00002101,0.00001023,-0.00001802,0.00008097,-0.00000029,-
 0.00000396,0.00002438,0.00000425,0.00000028,0.00004375,0.00003328,0.00
 003688,-0.00006307,-0.00013570,0.00009248,-0.00002136,-0.00011902,0.00
 023892,-0.00000787,-0.00008226,0.00023337,0.00021644,-0.00047483,0.000
 35664,0.00054864,-0.00052796,0.00288111,0.00013080,0.07662467,0.026514
 61,0.29673782,0.00030309,-0.00018463,-0.00009511,-0.00008714,-0.000019
 68,0.00000822,-0.00003346,-0.00005449,0.00006463,-0.00001690,0.0001592
 6,-0.00002809,0.00235946,-0.00122884,-0.00021661,-0.00106166,0.0068542
 7,-0.00089503,-0.00089292,-0.00147967,-0.00040678,-0.02935665,0.017091
 81,0.01034263,-0.00222872,-0.00115398,0.00357179,-0.00076273,-0.001457
 88,0.00047183,0.00315347,-0.00371209,-0.00286711,-0.12400642,0.1016668
 7,0.06586126,0.00027940,0.00097545,0.00004331,0.00010148,0.00009258,-0
 .00001167,0.00004577,-0.00000721,-0.00002063,0.00003144,0.00011197,0.0
 0004986,0.00003165,-0.00005015,-0.00004217,0.00002013,0.00000387,-0.00
 001396,0.00004795,-0.00004197,-0.00001412,0.00000259,-0.00000694,-0.00
 000784,0.00005097,-0.00001473,-0.00003579,-0.00000823,-0.00000127,-0.0
 0000152,0.00003962,0.00004762,-0.00004361,-0.00093343,0.00118691,-0.00
 046280,-0.00004099,-0.00004165,-0.00016425,0.00039371,0.00002970,0.000
 04572,-0.00009723,0.00012953,0.00010538,0.00014326,0.00027570,-0.00040
 693,0.00702304,-0.00630664,-0.00424567,0.14549945,-0.00015360,-0.00045
 137,-0.00019316,-0.00004617,-0.00005440,0.00002274,-0.00003097,0.00004
 034,0.00005325,0.00002036,0.00015279,-0.00001364,-0.00033661,-0.001383
 24,0.00077478,0.00008749,0.00234194,0.00023882,-0.00053275,-0.00054757
 ,-0.00063753,-0.00948563,0.00814637,0.00690783,-0.00152766,-0.00116574
 ,0.00020390,0.00009177,-0.00345541,0.00307698,0.01738667,-0.01756258,-
 0.01377497,0.10660727,-0.18198192,-0.09187601,-0.00202010,0.00067938,0
 .00052589,0.00030419,-0.00003240,0.00036941,0.00001902,-0.00000698,-0.
 00001049,0.00001661,0.00001843,0.00000210,-0.00000359,-0.00000967,-0.0
 0001709,0.00000901,0.00001568,-0.00002354,0.00003347,-0.00004542,-0.00
 001716,0.00000263,-0.00001249,0.00000491,0.00003197,0.00001381,-0.0000
 4763,-0.00000599,-0.00000670,0.00000957,-0.00000807,0.00000664,-0.0000
 0343,-0.00019831,0.00038033,-0.00003671,0.00003924,-0.00002645,0.00002
 889,0.00112836,-0.00034317,-0.00025538,-0.00026137,0.00008080,-0.00004
 008,-0.00032271,0.00146184,0.00013234,0.00201919,-0.00179848,-0.000889
 26,-0.11286375,0.19554565,-0.00014413,0.00027813,0.00003540,-0.0000464
 4,-0.00002643,0.00004301,0.00002083,-0.00001292,-0.00003848,-0.0000512
 6,-0.00013676,-0.00001395,-0.00134278,0.00026144,-0.00042783,0.0008934
 7,-0.00233198,0.00128997,0.00004835,0.00048463,-0.00021675,0.00017277,
 0.00505368,0.00340932,-0.00082921,0.00090902,-0.00078309,-0.00103333,0
 .00272252,-0.00129793,-0.01163006,0.01316052,0.00646706,0.06824014,-0.
 09084208,-0.10934499,0.00040389,-0.00068753,0.00007834,0.00017793,0.00
 046326,-0.00007947,-0.00001480,-0.00001643,-0.00002151,-0.00002373,-0.
 00002549,-0.00001492,0.00002091,0.00000357,0.00002097,-0.00005220,-0.0
 0004485,0.00001826,-0.00001964,0.00010278,0.00009111,0.00001708,0.0000
 2524,-0.00010410,-0.00002987,-0.00000046,0.00005047,0.00002478,-0.0000
 1152,-0.00000172,-0.00002750,-0.00002087,0.00001938,-0.00010395,-0.000
 03034,-0.00003089,-0.00008330,0.00013336,-0.00006044,-0.00063783,0.000
 29720,0.00027939,-0.00019199,0.00028671,0.00025361,-0.00027315,-0.0003
 9054,0.00115449,0.01709997,-0.02508855,-0.01654723,-0.07058494,0.09548
 468,0.11577252\\0.00000128,-0.00000044,0.00000123,0.00000377,-0.000000
 89,-0.00000054,-0.00000029,0.00000199,0.00000409,-0.00000228,0.0000004
 4,-0.00000074,-0.00000095,0.00000107,0.00000049,0.00000243,-0.00000138
 ,-0.00000134,-0.00000034,-0.00000196,-0.00000437,0.00000031,-0.0000000
 7,-0.00000136,0.00000004,-0.00000135,-0.00000400,-0.00000175,-0.000000
 71,-0.00000204,0.00000108,0.00000081,0.00000089,-0.00000104,0.00000043
 ,0.00000208,-0.00000200,0.00000156,0.00000297,-0.00000367,0.00000186,0
 .00000262,0.00000399,-0.00000095,0.00000014,0.00000382,-0.00000194,-0.
 00000229,0.00000551,-0.00000101,0.00000137,0.00000052,0.00000166,0.000
 00465,0.00000222,0.00000166,0.00000570,-0.00000193,0.00000246,0.000005
 01,-0.00000212,0.00000015,-0.00000112,-0.00000457,0.00000094,-0.000000
 29,-0.00000212,-0.00000090,-0.00000359,-0.00000154,-0.00000195,-0.0000
 0576,0.00000228,-0.00000244,-0.00000450,-0.00000029,-0.00000137,-0.000
 00352,-0.00000383,0.,-0.00000258,0.00000259,-0.00000033,0.00000120,-0.
 00000264,0.00000155,0.00000232,0.00000151,0.00000110,0.00000328\\\@
 The archive entry for this job was punched.


 E PUR SI MUOVE    -- GALILEO GALILEI
 Job cpu time:  0 days  0 hours 16 minutes 12.8 seconds.
 File lengths (MBytes):  RWF=    113 Int=      0 D2E=      0 Chk=      3 Scr=      1
 Normal termination of Gaussian DV at Wed Oct 19 22:52:54 2011.
