 Entering Gaussian System, Link 0=gdv
 Input=cub.gjf
 Output=cub.log
 Initial command:
 /home/foresman/gdv/l1.exe /tmp/Gau-24568.inp -scrdir=/tmp/
 Default is to use a total of   8 processors:
                                8 via shared-memory
                                1 via Linda
 Entering Link 1 = /home/foresman/gdv/l1.exe PID=     24569.
  
 Copyright (c) 1988,1990,1992,1993,1995,1998,2003,2009,2011,
            Gaussian, Inc.  All Rights Reserved.
  
 This is the private, development version of
 the Gaussian(R) DV system of programs. It is based on
 the Gaussian(R) 09 system (copyright 2009, Gaussian, Inc.),
 the Gaussian(R) 03 system (copyright 2003, Gaussian, Inc.),
 the Gaussian(R) 98 system (copyright 1998, Gaussian, Inc.),
 the Gaussian(R) 94 system (copyright 1995, Gaussian, Inc.),
 the Gaussian 92(TM) system (copyright 1992, Gaussian, Inc.),
 the Gaussian 90(TM) system (copyright 1990, Gaussian, Inc.),
 the Gaussian 88(TM) system (copyright 1988, Gaussian, Inc.),
 the Gaussian 86(TM) system (copyright 1986, Carnegie Mellon
 University), and the Gaussian 82(TM) system (copyright 1983,
 Carnegie Mellon University). Gaussian is a federally registered
 trademark of Gaussian, Inc.
  
 This software contains proprietary and confidential information,
 including trade secrets, belonging to Gaussian, Inc.
  
 This software is provided under written license and may be
 used, copied, transmitted, or stored only in accord with that
 written license.
  
 The following legend is applicable only to US Government
 contracts under FAR:
  
                    RESTRICTED RIGHTS LEGEND
  
 Use, reproduction and disclosure by the US Government is
 subject to restrictions as set forth in subparagraphs (a)
 and (c) of the Commercial Computer Software - Restricted
 Rights clause in FAR 52.227-19.
  
 Gaussian, Inc.
 340 Quinnipiac St., Bldg. 40, Wallingford CT 06492
  
  
 ---------------------------------------------------------------
 Warning -- This program may not be used in any manner that
 competes with the business of Gaussian, Inc. or will provide
 assistance to any competitor of Gaussian, Inc.  The licensee
 of this program is prohibited from giving any competitor of
 Gaussian, Inc. access to this program.  By using this program,
 the user acknowledges that Gaussian, Inc. is engaged in the
 business of creating and licensing software in the field of
 computational chemistry and represents and warrants to the
 licensee that it is not a competitor of Gaussian, Inc. and that
 it will not use this program in any manner prohibited above.
 ---------------------------------------------------------------
  

 Cite this work as:
 Gaussian Development Version, Revision H.13,
 M. J. Frisch, G. W. Trucks, H. B. Schlegel, G. E. Scuseria, 
 M. A. Robb, J. R. Cheeseman, G. Scalmani, V. Barone, B. Mennucci, 
 G. A. Petersson, H. Nakatsuji, M. Caricato, X. Li, H. P. Hratchian, 
 A. F. Izmaylov, J. Bloino, G. Zheng, J. L. Sonnenberg, W. Liang, 
 M. Hada, M. Ehara, K. Toyota, R. Fukuda, J. Hasegawa, M. Ishida, 
 T. Nakajima, Y. Honda, O. Kitao, H. Nakai, T. Vreven, 
 J. A. Montgomery, Jr., J. E. Peralta, F. Ogliaro, M. Bearpark, 
 J. J. Heyd, E. Brothers, K. N. Kudin, V. N. Staroverov, T. Keith, 
 R. Kobayashi, J. Normand, K. Raghavachari, A. Rendell, J. C. Burant, 
 S. S. Iyengar, J. Tomasi, M. Cossi, N. Rega, J. M. Millam, M. Klene, 
 J. E. Knox, J. B. Cross, V. Bakken, C. Adamo, J. Jaramillo, 
 R. Gomperts, R. E. Stratmann, O. Yazyev, A. J. Austin, R. Cammi, 
 C. Pomelli, J. W. Ochterski, R. L. Martin, K. Morokuma, 
 V. G. Zakrzewski, G. A. Voth, P. Salvador, J. J. Dannenberg, 
 S. Dapprich, P. V. Parandekar, N. J. Mayhall, A. D. Daniels, 
 O. Farkas, J. B. Foresman, J. V. Ortiz, J. Cioslowski, 
 and D. J. Fox, Gaussian, Inc., Wallingford CT, 2010.
 
 ******************************************
 Gaussian DV:  EM64L-GDVRevH.13 30-Sep-2011
                19-Oct-2011 
 ******************************************
 %chk=cub
 %nprocshared=8
 Will use up to    8 processors via shared memory.
 Default route:  maxdisk=400GB
 ------------------------------------
 #p B3LYP/3-21G freq=vcd Geom=Connect
 ------------------------------------
 1/10=4,30=1,38=1,57=2/1,3;
 2/12=2,17=6,18=5,40=1/2;
 3/5=5,11=2,16=1,25=1,30=1,36=2,71=2,74=-5,140=1/1,2,3;
 4//1;
 5/5=2,38=5,98=1/2;
 8/6=4,10=90,11=11/1;
 10/15=4,46=1/2;
 11/6=1,8=1,9=11,15=111,16=1/1,2,10;
 10/6=1,46=1/2;
 6/7=2,8=2,9=2,10=2,18=1,28=1/1;
 7/8=1,10=1,25=1/1,2,3,16;
 1/10=4,30=1/3;
 99//99;
 Leave Link    1 at Wed Oct 19 22:52:55 2011, MaxMem=          0 cpu:       0.3
 (Enter /home/foresman/gdv/l101.exe)
 ----------------
 27 -19.931 0.000
 ----------------
 Charge =  0 Multiplicity = 1
 Symbolic Z-Matrix:
 C                     0.71746  -2.83156   0.01775 
 C                     2.22392  -2.92189   0.29015 
 C                    -0.10619  -3.28501   1.2332 
 C                     0.32615  -3.59479  -1.25755 
 O                     0.52317  -1.35863  -0.19829 
 C                    -0.74983  -0.88524  -0.48517 
 O                    -1.7807   -1.57111  -0.57237 
 N                    -0.70949   0.45972  -0.6652 
 C                    -1.94309   1.2207   -0.98848 
 C                    -1.45891   2.68737  -0.93748 
 C                     0.03555   2.60041  -1.30943 
 C                     0.49528   1.30443  -0.59411 
 O                     0.6935    3.79854  -0.82252 
 H                     1.6284    3.79589  -1.16276 
 H                     2.50919  -3.96344   0.4684 
 H                     2.78012  -2.53768  -0.57021 
 H                     2.47814  -2.32221   1.16913 
 H                     0.08331  -4.34526   1.43055 
 H                     0.18317  -2.70288   2.11439 
 H                    -1.16582  -3.1288    1.02734 
 H                     0.52689  -4.66274  -1.12276 
 H                    -0.73436  -3.43877  -1.45899 
 H                     0.91591  -3.22767  -2.10428 
 H                    -2.73052   1.00116  -0.26342 
 H                    -2.30557   0.94562  -1.98558 
 H                    -2.01925   3.34486  -1.60441 
 H                    -1.50776   3.07923   0.08317 
 H                     0.13821   2.47542  -2.39693 
 H                     0.75525   1.56475   0.4392 
 H                     1.34116   0.80576  -1.07043 
 
 NAtoms=     30 NQM=        0 NQMF=       0 NMMI=     30 NMMIF=      0
                NMic=       0 NMicF=      0.
                    Isotopes and Nuclear Properties:
 (Nuclear quadrupole moments (NQMom) in fm**2, nuclear magnetic moments (NMagM)
  in nuclear magnetons)

  Atom         1           2           3           4           5           6           7           8           9          10
 IAtWgt=          12          12          12          12          16          12          16          14          12          12
 AtmWgt=  12.0000000  12.0000000  12.0000000  12.0000000  15.9949146  12.0000000  15.9949146  14.0030740  12.0000000  12.0000000
 NucSpn=           0           0           0           0           0           0           0           2           0           0
 AtZEff=   0.0000000   0.0000000   0.0000000   0.0000000   0.0000000   0.0000000   0.0000000   0.0000000   0.0000000   0.0000000
 NQMom=    0.0000000   0.0000000   0.0000000   0.0000000   0.0000000   0.0000000   0.0000000   2.0440000   0.0000000   0.0000000
 NMagM=    0.0000000   0.0000000   0.0000000   0.0000000   0.0000000   0.0000000   0.0000000   0.4037610   0.0000000   0.0000000
 AtZNuc=   6.0000000   6.0000000   6.0000000   6.0000000   8.0000000   6.0000000   8.0000000   7.0000000   6.0000000   6.0000000

  Atom        11          12          13          14          15          16          17          18          19          20
 IAtWgt=          12          12          16           1           1           1           1           1           1           1
 AtmWgt=  12.0000000  12.0000000  15.9949146   1.0078250   1.0078250   1.0078250   1.0078250   1.0078250   1.0078250   1.0078250
 NucSpn=           0           0           0           1           1           1           1           1           1           1
 AtZEff=   0.0000000   0.0000000   0.0000000   0.0000000   0.0000000   0.0000000   0.0000000   0.0000000   0.0000000   0.0000000
 NQMom=    0.0000000   0.0000000   0.0000000   0.0000000   0.0000000   0.0000000   0.0000000   0.0000000   0.0000000   0.0000000
 NMagM=    0.0000000   0.0000000   0.0000000   2.7928460   2.7928460   2.7928460   2.7928460   2.7928460   2.7928460   2.7928460
 AtZNuc=   6.0000000   6.0000000   8.0000000   1.0000000   1.0000000   1.0000000   1.0000000   1.0000000   1.0000000   1.0000000

  Atom        21          22          23          24          25          26          27          28          29          30
 IAtWgt=           1           1           1           1           1           1           1           1           1           1
 AtmWgt=   1.0078250   1.0078250   1.0078250   1.0078250   1.0078250   1.0078250   1.0078250   1.0078250   1.0078250   1.0078250
 NucSpn=           1           1           1           1           1           1           1           1           1           1
 AtZEff=   0.0000000   0.0000000   0.0000000   0.0000000   0.0000000   0.0000000   0.0000000   0.0000000   0.0000000   0.0000000
 NQMom=    0.0000000   0.0000000   0.0000000   0.0000000   0.0000000   0.0000000   0.0000000   0.0000000   0.0000000   0.0000000
 NMagM=    2.7928460   2.7928460   2.7928460   2.7928460   2.7928460   2.7928460   2.7928460   2.7928460   2.7928460   2.7928460
 AtZNuc=   1.0000000   1.0000000   1.0000000   1.0000000   1.0000000   1.0000000   1.0000000   1.0000000   1.0000000   1.0000000
 Leave Link  101 at Wed Oct 19 22:52:55 2011, MaxMem=  128000000 cpu:       0.9
 (Enter /home/foresman/gdv/l103.exe)

 GradGradGradGradGradGradGradGradGradGradGradGradGradGradGradGradGradGrad
 Berny optimization.
 Initialization pass.
 Trust Radius=3.00D-01 FncErr=1.00D-07 GrdErr=1.00D-07
 Number of steps in this run=      2 maximum allowed number of steps=      2.
 GradGradGradGradGradGradGradGradGradGradGradGradGradGradGradGradGradGrad

 Leave Link  103 at Wed Oct 19 22:52:55 2011, MaxMem=  128000000 cpu:       0.2
 (Enter /home/foresman/gdv/l202.exe)
                          Input orientation:                          
 ---------------------------------------------------------------------
 Center     Atomic      Atomic             Coordinates (Angstroms)
 Number     Number       Type             X           Y           Z
 ---------------------------------------------------------------------
      1          6           0        0.717459   -2.831562    0.017751
      2          6           0        2.223920   -2.921887    0.290155
      3          6           0       -0.106191   -3.285008    1.233204
      4          6           0        0.326148   -3.594788   -1.257554
      5          8           0        0.523168   -1.358628   -0.198292
      6          6           0       -0.749830   -0.885236   -0.485169
      7          8           0       -1.780695   -1.571106   -0.572375
      8          7           0       -0.709490    0.459721   -0.665196
      9          6           0       -1.943092    1.220697   -0.988484
     10          6           0       -1.458906    2.687370   -0.937484
     11          6           0        0.035555    2.600409   -1.309425
     12          6           0        0.495277    1.304435   -0.594109
     13          8           0        0.693500    3.798539   -0.822519
     14          1           0        1.628395    3.795889   -1.162765
     15          1           0        2.509192   -3.963443    0.468399
     16          1           0        2.780119   -2.537676   -0.570207
     17          1           0        2.478137   -2.322208    1.169126
     18          1           0        0.083312   -4.345264    1.430547
     19          1           0        0.183175   -2.702879    2.114387
     20          1           0       -1.165824   -3.128799    1.027343
     21          1           0        0.526889   -4.662739   -1.122755
     22          1           0       -0.734358   -3.438773   -1.458993
     23          1           0        0.915912   -3.227674   -2.104279
     24          1           0       -2.730515    1.001155   -0.263422
     25          1           0       -2.305571    0.945620   -1.985584
     26          1           0       -2.019252    3.344863   -1.604413
     27          1           0       -1.507756    3.079230    0.083175
     28          1           0        0.138212    2.475423   -2.396929
     29          1           0        0.755251    1.564753    0.439198
     30          1           0        1.341159    0.805765   -1.070432
 ---------------------------------------------------------------------
                    Distance matrix (angstroms):
                    1          2          3          4          5
     1  C    0.000000
     2  C    1.533554   0.000000
     3  C    1.536665   2.539807   0.000000
     4  C    1.536893   2.539633   2.546912   0.000000
     5  O    1.501319   2.361126   2.481172   2.482190   0.000000
     6  C    2.488785   3.686769   3.020924   3.015954   1.388136
     7  O    2.859680   4.313410   3.000256   3.000591   2.343687
     8  N    3.651731   4.577429   4.241566   4.226402   2.245848
     9  C    4.950943   6.013311   5.348970   5.330173   3.655100
    10  C    6.008964   6.821588   6.497001   6.538683   4.565646
    11  C    5.633178   6.151694   6.412736   6.202225   4.140815
    12  C    4.186909   4.651013   4.976326   4.946832   2.692462
    13  O    6.683178   6.981715   7.419039   7.415220   5.197600
    14  H    6.793124   6.898851   7.673889   7.505128   5.359178
    15  H    2.166691   1.094528   2.808101   2.807224   3.342728
    16  H    2.164863   1.094165   3.484478   2.758968   2.573385
    17  H    2.164508   1.093998   2.758595   3.484149   2.572979
    18  H    2.165509   2.812241   1.094988   2.801441   3.430245
    19  H    2.167464   2.745984   1.095029   3.490835   2.696496
    20  H    2.157401   3.475144   1.090689   2.768372   2.736490
    21  H    2.165706   2.811902   2.801692   1.094983   3.431005
    22  H    2.158066   3.475356   2.768784   1.090684   2.738200
    23  H    2.167787   2.745488   3.490956   1.095233   2.698216
    24  H    5.163071   6.343747   5.243869   5.608403   4.019859
    25  H    5.236331   6.375961   5.752919   5.298233   4.062725
    26  H    6.947606   7.801670   7.461036   7.333483   5.528463
    27  H    6.316116   7.069770   6.617438   7.050055   4.888605
    28  H    5.859206   6.379776   6.813235   6.179074   4.436456
    29  H    4.416631   4.723255   4.989260   5.448299   3.001069
    30  H    3.847504   4.065200   4.912839   4.519970   2.472718
                    6          7          8          9         10
     6  C    0.000000
     7  O    1.241252   0.000000
     8  N    1.357551   2.297902   0.000000
     9  C    2.472277   2.827311   1.485050   0.000000
    10  C    3.670271   4.286196   2.366049   1.545369   0.000000
    11  C    3.666871   4.609072   2.356410   2.433444   1.542503
    12  C    2.521273   3.667323   1.473112   2.471475   2.418522
    13  O    4.912713   5.917542   3.625030   3.691128   2.425029
    14  H    5.294150   6.385538   4.104059   4.406530   3.288008
    15  H    4.583217   5.020918   5.586531   6.987178   7.871190
    16  H    3.898504   4.662112   4.601172   6.050541   6.738348
    17  H    3.901455   4.662041   4.611380   6.062567   6.710736
    18  H    4.041768   3.896430   5.301749   6.398277   7.579178
    19  H    3.306360   3.515165   4.304064   5.435372   6.408208
    20  H    2.737575   2.315938   3.993795   4.856523   6.146077
    21  H    4.038076   3.896929   5.289384   6.382292   7.615892
    22  H    2.732970   2.317130   3.978565   4.836639   6.190845
    23  H    3.298974   3.516054   4.278992   5.404342   6.479886
    24  H    2.744222   2.759373   2.130520   1.092680   2.216905
    25  H    2.832597   2.933695   2.127674   1.096023   2.202055
    26  H    4.556081   5.028794   3.304793   2.212973   1.091366
    27  H    4.076083   4.704240   2.838859   2.189090   1.094388
    28  H    3.967048   4.835866   2.789365   2.808893   2.173865
    29  H    3.020293   4.157874   2.141553   3.072085   2.838664
    30  H    2.752136   3.955193   2.118755   3.311373   3.376163
                   11         12         13         14         15
    11  C    0.000000
    12  C    1.550023   0.000000
    13  O    1.451029   2.512373   0.000000
    14  H    1.996954   2.795474   0.994888   0.000000
    15  H    7.236276   5.738930   8.075368   7.977703   0.000000
    16  H    5.871882   4.470223   6.675722   6.464646   1.784633
    17  H    6.028397   4.493692   6.679455   6.602340   1.784835
    18  H    7.466732   6.015650   8.471727   8.682795   2.637501
    19  H    6.314202   4.846847   7.152223   7.420403   3.115871
    20  H    6.302984   5.004191   7.407232   7.781744   3.809829
    21  H    7.282140   5.990628   8.468242   8.530141   2.636345
    22  H    6.089897   4.975745   7.404226   7.616475   3.809296
    23  H    5.947552   4.795577   7.145631   7.122116   3.114253
    24  H    3.361975   3.256849   4.456661   5.255421   7.255159
    25  H    2.945570   3.147967   4.299568   4.927185   7.300882
    26  H    2.205326   3.392185   2.859406   3.701866   8.843907
    27  H    2.133170   2.760571   2.486607   3.449842   8.116866
    28  H    1.099466   2.179190   2.130199   2.342529   7.435768
    29  H    2.155975   1.096848   2.566231   2.882123   5.799838
    30  H    2.232144   1.091362   3.072071   3.005308   5.145643
                   16         17         18         19         20
    16  H    0.000000
    17  H    1.778454   0.000000
    18  H    3.813550   3.145836   0.000000
    19  H    3.738778   2.511032   1.781863   0.000000
    20  H    4.297914   3.734856   1.789609   1.784060   0.000000
    21  H    3.146148   3.812896   2.610920   3.799774   3.137064
    22  H    3.735434   4.298122   3.136838   3.761974   2.542462
    23  H    2.510925   3.738395   3.799634   4.313868   3.761709
    24  H    6.556259   6.342475   6.274659   5.278583   4.601179
    25  H    6.324625   6.596571   6.735738   6.026206   5.194000
    26  H    7.662103   7.748208   8.530522   7.433394   7.040084
    27  H    7.096649   6.800159   7.711681   6.357504   6.288720
    28  H    5.953801   6.419444   7.821404   6.867955   6.695778
    29  H    4.684967   4.313884   6.030139   4.620196   5.105475
    30  H    3.674157   4.011552   5.862608   4.877969   5.115312
                   21         22         23         24         25
    21  H    0.000000
    22  H    1.789384   0.000000
    23  H    1.781611   1.784474   0.000000
    24  H    6.590055   5.012683   5.879471   0.000000
    25  H    6.342002   4.687100   5.273369   1.774684   0.000000
    26  H    8.416443   6.905781   7.215490   2.792332   2.446147
    27  H    8.095192   6.742461   7.101842   2.435912   3.077103
    28  H    7.261401   6.051348   5.763313   3.867158   2.912314
    29  H    6.424446   5.554938   5.427932   3.600262   3.953672
    30  H    5.529042   4.740765   4.185488   4.155475   3.762406
                   26         27         28         29         30
    26  H    0.000000
    27  H    1.783295   0.000000
    28  H    2.457369   3.037221   0.000000
    29  H    3.878532   2.746196   3.041986   0.000000
    30  H    4.245530   3.823058   2.448354   1.788389   0.000000
 Stoichiometry    C9H17NO3
 Framework group  C1[X(C9H17NO3)]
 Deg. of freedom    84
 Full point group                 C1      NOp   1
 Largest Abelian subgroup         C1      NOp   1
 Largest concise Abelian subgroup C1      NOp   1
                         Standard orientation:                         
 ---------------------------------------------------------------------
 Center     Atomic      Atomic             Coordinates (Angstroms)
 Number     Number       Type             X           Y           Z
 ---------------------------------------------------------------------
      1          6           0       -2.612936    0.384886   -0.009059
      2          6           0       -2.997502    1.868462   -0.062909
      3          6           0       -3.123587   -0.377791   -1.241495
      4          6           0       -3.071818   -0.271492    1.302671
      5          8           0       -1.113236    0.445767   -0.042973
      6          6           0       -0.392958   -0.740140   -0.001192
      7          8           0       -0.872890   -1.883706    0.050063
      8          7           0        0.937305   -0.469984   -0.020207
      9          6           0        1.936555   -1.567842    0.019545
     10          6           0        3.271882   -0.817414   -0.185214
     11          6           0        3.002396    0.588133    0.390225
     12          6           0        1.545354    0.871295   -0.056337
     13          8           0        3.973726    1.503822   -0.178562
     14          1           0        3.873739    2.381520    0.279097
     15          1           0       -4.086909    1.972561   -0.044296
     16          1           0       -2.570158    2.393843    0.796481
     17          1           0       -2.607127    2.319383   -0.980029
     18          1           0       -4.218492   -0.368757   -1.251493
     19          1           0       -2.756478    0.104450   -2.153506
     20          1           0       -2.760646   -1.405620   -1.203483
     21          1           0       -4.165406   -0.259401    1.356596
     22          1           0       -2.709675   -1.299751    1.336262
     23          1           0       -2.668984    0.284931    2.155697
     24          1           0        1.730641   -2.302677   -0.762482
     25          1           0        1.899579   -2.076619    0.989619
     26          1           0        4.117281   -1.312288    0.295910
     27          1           0        3.486642   -0.686460   -1.250303
     28          1           0        3.049286    0.552308    1.488106
     29          1           0        1.578864    1.280933   -1.073269
     30          1           0        1.001596    1.555888    0.596910
 ---------------------------------------------------------------------
 Rotational constants (GHZ):      1.6290854      0.4026548      0.3528282
 Leave Link  202 at Wed Oct 19 22:52:55 2011, MaxMem=  128000000 cpu:       0.0
 (Enter /home/foresman/gdv/l301.exe)
 Standard basis: 3-21G (6D, 7F)
 Ernie: Thresh=  0.10000D-02 Tol=  0.10000D-05 Strict=F.
 There are   151 symmetry adapted cartesian basis functions of A   symmetry.
 There are   151 symmetry adapted basis functions of A   symmetry.
   151 basis functions,   246 primitive gaussians,   151 cartesian basis functions
    51 alpha electrons       51 beta electrons
       nuclear repulsion energy       870.9195540349 Hartrees.
 IExCor=  402 DFT=T Ex+Corr=B3LYP ExCW=0 ScaHFX=  0.200000
 ScaDFX=  0.800000  0.720000  1.000000  0.810000 ScalE2=  1.000000  1.000000
 IRadAn=      0 IRanWt=     -1 IRanGd=            0 ICorTp=0 IEmpDi=  4
 NAtoms=   30 NActive=   30 NUniq=   30 SFac= 1.00D+00 NAtFMM=   60 NAOKFM=F Big=F
 Integral buffers will be    131072 words long.
 Raffenetti 2 integral format.
 Two-electron integral symmetry is turned on.
 Leave Link  301 at Wed Oct 19 22:52:55 2011, MaxMem=  128000000 cpu:       0.5
 (Enter /home/foresman/gdv/l302.exe)
 NPDir=0 NMtPBC=     1 NCelOv=     1 NCel=       1 NClECP=     1 NCelD=      1
         NCelK=      1 NCelE2=     1 NClLst=     1 CellRange=     0.0.
 One-electron integrals computed using PRISM.
 NBasis=   151 RedAO= T EigKep=  8.98D-03  NBF=   151
 NBsUse=   151 1.00D-06 EigRej= -1.00D+00 NBFU=   151
 Precomputing XC quadrature grid using
 IXCGrd= 2 IRadAn=           0 IRanWt=          -1 IRanGd=           0 AccXCQ= 0.00D+00.
 NRdTot=    1900 NPtTot=      240534 NUsed=      254237 NTot=      254269
 NSgBfM=   149   149   149   149   149 NAtAll=    30    30.
 Leave Link  302 at Wed Oct 19 22:52:55 2011, MaxMem=  128000000 cpu:       2.2
 (Enter /home/foresman/gdv/l303.exe)
 DipDrv:  MaxL=2.
 Leave Link  303 at Wed Oct 19 22:52:55 2011, MaxMem=  128000000 cpu:       0.4
 (Enter /home/foresman/gdv/l401.exe)
 ExpMin= 1.83D-01 ExpMax= 3.22D+02 ExpMxC= 3.22D+02 IAcc=1 IRadAn=         1 AccDes= 0.00D+00
 Harris functional with IExCor=  402 and IRadAn=       1 diagonalized for initial guess.
 HarFok:  IExCor=  402 AccDes= 0.00D+00 IRadAn=         1 IDoV= 1 UseB2=F ITyADJ=14
 ICtDFT=  3500011 ScaDFX=  1.000000  1.000000  1.000000  1.000000
 FoFCou: FMM=F IPFlag=           0 FMFlag=      100000 FMFlg1=           0
         NFxFlg=           0 DoJE=T BraDBF=F KetDBF=T FulRan=T
         wScrn=  0.000000 ICntrl=     500 IOpCl=  0 I1Cent=   200000004 NGrid=           0
         NMat0=    1 NMatS0=      1 NMatT0=    0 NMatD0=    1 NMtDS0=    0 NMtDT0=    0
 Petite list used in FoFCou.
 Harris En= -630.189394827147    
 Initial guess orbital symmetries:
       Occupied  (A) (A) (A) (A) (A) (A) (A) (A) (A) (A) (A) (A)
                 (A) (A) (A) (A) (A) (A) (A) (A) (A) (A) (A) (A)
                 (A) (A) (A) (A) (A) (A) (A) (A) (A) (A) (A) (A)
                 (A) (A) (A) (A) (A) (A) (A) (A) (A) (A) (A) (A)
                 (A) (A) (A)
       Virtual   (A) (A) (A) (A) (A) (A) (A) (A) (A) (A) (A) (A)
                 (A) (A) (A) (A) (A) (A) (A) (A) (A) (A) (A) (A)
                 (A) (A) (A) (A) (A) (A) (A) (A) (A) (A) (A) (A)
                 (A) (A) (A) (A) (A) (A) (A) (A) (A) (A) (A) (A)
                 (A) (A) (A) (A) (A) (A) (A) (A) (A) (A) (A) (A)
                 (A) (A) (A) (A) (A) (A) (A) (A) (A) (A) (A) (A)
                 (A) (A) (A) (A) (A) (A) (A) (A) (A) (A) (A) (A)
                 (A) (A) (A) (A) (A) (A) (A) (A) (A) (A) (A) (A)
                 (A) (A) (A) (A)
 The electronic state of the initial guess is 1-A.
 Leave Link  401 at Wed Oct 19 22:52:55 2011, MaxMem=  128000000 cpu:       2.8
 (Enter /home/foresman/gdv/l502.exe)
 Closed shell SCF:
 Using DIIS extrapolation, IDIIS=  1040.
 Integral symmetry usage will be decided dynamically.
       253954 words used for storage of precomputed grid.
 Keep R1 ints in memory in canonical form, NReq=67953755.
 IVT=      342901 IEndB=      342901 NGot=   128000000 MDV=    61802074
 LenX=    61802074 LenY=    61778832
 Requested convergence on RMS density matrix=1.00D-08 within 128 cycles.
 Requested convergence on MAX density matrix=1.00D-06.
 Requested convergence on             energy=1.00D-06.
 No special actions if energy rises.
 FoFCou: FMM=F IPFlag=           0 FMFlag=           0 FMFlg1=           0
         NFxFlg=           0 DoJE=F BraDBF=F KetDBF=F FulRan=T
         wScrn=  0.000000 ICntrl=     600 IOpCl=  0 I1Cent=           0 NGrid=           0
         NMat0=    1 NMatS0=  11476 NMatT0=    0 NMatD0=    1 NMtDS0=    0 NMtDT0=    0
 Symmetry not used in FoFCou.
 Integral accuracy reduced to 1.0D-05 until final iterations.

 Cycle   1  Pass 0  IDiag  1:
 E= -629.847697914792    
 DIIS: error= 4.62D-02 at cycle   1 NSaved=   1.
 NSaved= 1 IEnMin= 1 EnMin= -629.847697914792     IErMin= 1 ErrMin= 4.62D-02
 ErrMax= 4.62D-02  0.00D+00 EMaxC= 1.00D-01 BMatC= 3.65D-01 BMatP= 3.65D-01
 IDIUse=3 WtCom= 5.38D-01 WtEn= 4.62D-01
 Coeff-Com:  0.100D+01
 Coeff-En:   0.100D+01
 Coeff:      0.100D+01
 Gap=     0.271 Goal=   None    Shift=    0.000
 GapD=    0.271 DampG=1.000 DampE=0.500 DampFc=0.5000 IDamp=-1.
 Damping current iteration by 5.00D-01
 RMSDP=9.04D-03 MaxDP=1.73D-01              OVMax= 3.11D-01

 Cycle   2  Pass 0  IDiag  1:
 E= -629.948526854558     Delta-E=       -0.100828939766 Rises=F Damp=T
 DIIS: error= 3.13D-02 at cycle   2 NSaved=   2.
 NSaved= 2 IEnMin= 2 EnMin= -629.948526854558     IErMin= 2 ErrMin= 3.13D-02
 ErrMax= 3.13D-02  0.00D+00 EMaxC= 1.00D-01 BMatC= 5.10D-02 BMatP= 3.65D-01
 IDIUse=3 WtCom= 6.87D-01 WtEn= 3.13D-01
 Coeff-Com:  0.202D+00 0.798D+00
 Coeff-En:   0.310D+00 0.690D+00
 Coeff:      0.236D+00 0.764D+00
 Gap=     0.301 Goal=   None    Shift=    0.000
 RMSDP=2.79D-03 MaxDP=6.43D-02 DE=-1.01D-01 OVMax= 2.05D-01

 Cycle   3  Pass 0  IDiag  1:
 E= -630.125238432094     Delta-E=       -0.176711577536 Rises=F Damp=F
 DIIS: error= 3.78D-02 at cycle   3 NSaved=   3.
 NSaved= 3 IEnMin= 3 EnMin= -630.125238432094     IErMin= 2 ErrMin= 3.13D-02
 ErrMax= 3.78D-02  0.00D+00 EMaxC= 1.00D-01 BMatC= 6.17D-02 BMatP= 5.10D-02
 IDIUse=2 WtCom= 0.00D+00 WtEn= 1.00D+00
 Coeff-En:   0.000D+00 0.000D+00 0.100D+01
 Coeff:      0.000D+00 0.000D+00 0.100D+01
 Gap=     0.329 Goal=   None    Shift=    0.000
 RMSDP=5.26D-03 MaxDP=1.34D-01 DE=-1.77D-01 OVMax= 3.07D-01

 Cycle   4  Pass 0  IDiag  1:
 E= -629.883516274863     Delta-E=        0.241722157231 Rises=F Damp=F
 DIIS: error= 1.05D-01 at cycle   4 NSaved=   4.
 NSaved= 4 IEnMin= 3 EnMin= -630.125238432094     IErMin= 2 ErrMin= 3.13D-02
 ErrMax= 1.05D-01  0.00D+00 EMaxC= 1.00D-01 BMatC= 3.72D-01 BMatP= 5.10D-02
 IDIUse=2 WtCom= 0.00D+00 WtEn= 1.00D+00
 Coeff-En:   0.000D+00 0.000D+00 0.797D+00 0.203D+00
 Coeff:      0.000D+00 0.000D+00 0.797D+00 0.203D+00
 Gap=     0.291 Goal=   None    Shift=    0.000
 RMSDP=2.86D-03 MaxDP=7.57D-02 DE= 2.42D-01 OVMax= 1.47D-01

 Cycle   5  Pass 0  IDiag  1:
 E= -630.156974720560     Delta-E=       -0.273458445697 Rises=F Damp=F
 DIIS: error= 2.53D-02 at cycle   5 NSaved=   5.
 NSaved= 5 IEnMin= 5 EnMin= -630.156974720560     IErMin= 5 ErrMin= 2.53D-02
 ErrMax= 2.53D-02  0.00D+00 EMaxC= 1.00D-01 BMatC= 2.47D-02 BMatP= 5.10D-02
 IDIUse=3 WtCom= 7.47D-01 WtEn= 2.53D-01
 Coeff-Com: -0.110D-01 0.524D-01 0.317D+00-0.706D-01 0.712D+00
 Coeff-En:   0.000D+00 0.000D+00 0.324D+00 0.000D+00 0.676D+00
 Coeff:     -0.819D-02 0.392D-01 0.319D+00-0.527D-01 0.703D+00
 Gap=     0.302 Goal=   None    Shift=    0.000
 RMSDP=1.06D-03 MaxDP=2.74D-02 DE=-2.73D-01 OVMax= 4.32D-02

 Cycle   6  Pass 0  IDiag  1:
 E= -630.176997214415     Delta-E=       -0.020022493856 Rises=F Damp=F
 DIIS: error= 2.33D-03 at cycle   6 NSaved=   6.
 NSaved= 6 IEnMin= 6 EnMin= -630.176997214415     IErMin= 6 ErrMin= 2.33D-03
 ErrMax= 2.33D-03  0.00D+00 EMaxC= 1.00D-01 BMatC= 2.62D-04 BMatP= 2.47D-02
 IDIUse=3 WtCom= 9.77D-01 WtEn= 2.33D-02
 Coeff-Com: -0.962D-02 0.248D-01 0.137D+00-0.464D-01 0.404D+00 0.491D+00
 Coeff-En:   0.000D+00 0.000D+00 0.000D+00 0.000D+00 0.000D+00 0.100D+01
 Coeff:     -0.940D-02 0.242D-01 0.133D+00-0.453D-01 0.395D+00 0.502D+00
 Gap=     0.285 Goal=   None    Shift=    0.000
 RMSDP=1.15D-04 MaxDP=3.76D-03 DE=-2.00D-02 OVMax= 6.14D-03

 Cycle   7  Pass 0  IDiag  1:
 E= -630.177205991104     Delta-E=       -0.000208776689 Rises=F Damp=F
 DIIS: error= 4.00D-04 at cycle   7 NSaved=   7.
 NSaved= 7 IEnMin= 7 EnMin= -630.177205991104     IErMin= 7 ErrMin= 4.00D-04
 ErrMax= 4.00D-04  0.00D+00 EMaxC= 1.00D-01 BMatC= 8.13D-06 BMatP= 2.62D-04
 IDIUse=3 WtCom= 9.96D-01 WtEn= 4.00D-03
 Coeff-Com: -0.295D-02 0.714D-02 0.329D-01-0.156D-01 0.115D+00 0.235D+00
 Coeff-Com:  0.628D+00
 Coeff-En:   0.000D+00 0.000D+00 0.000D+00 0.000D+00 0.000D+00 0.000D+00
 Coeff-En:   0.100D+01
 Coeff:     -0.294D-02 0.711D-02 0.328D-01-0.156D-01 0.115D+00 0.234D+00
 Coeff:      0.630D+00
 Gap=     0.285 Goal=   None    Shift=    0.000
 RMSDP=1.77D-05 MaxDP=4.89D-04 DE=-2.09D-04 OVMax= 6.70D-04

 Cycle   8  Pass 0  IDiag  1:
 E= -630.177212180814     Delta-E=       -0.000006189709 Rises=F Damp=F
 DIIS: error= 7.15D-05 at cycle   8 NSaved=   8.
 NSaved= 8 IEnMin= 8 EnMin= -630.177212180814     IErMin= 8 ErrMin= 7.15D-05
 ErrMax= 7.15D-05  0.00D+00 EMaxC= 1.00D-01 BMatC= 5.38D-07 BMatP= 8.13D-06
 IDIUse=1 WtCom= 1.00D+00 WtEn= 0.00D+00
 Coeff-Com: -0.200D-03-0.226D-03 0.224D-02-0.138D-02 0.111D-01 0.776D-01
 Coeff-Com:  0.316D+00 0.595D+00
 Coeff:     -0.200D-03-0.226D-03 0.224D-02-0.138D-02 0.111D-01 0.776D-01
 Coeff:      0.316D+00 0.595D+00
 Gap=     0.285 Goal=   None    Shift=    0.000
 RMSDP=5.53D-06 MaxDP=1.09D-04 DE=-6.19D-06 OVMax= 1.68D-04

 Initial convergence to 1.0D-05 achieved.  Increase integral accuracy.
 Cycle   9  Pass 1  IDiag  1:
 E= -630.177229213441     Delta-E=       -0.000017032628 Rises=F Damp=F
 DIIS: error= 2.08D-05 at cycle   1 NSaved=   1.
 NSaved= 1 IEnMin= 1 EnMin= -630.177229213441     IErMin= 1 ErrMin= 2.08D-05
 ErrMax= 2.08D-05  0.00D+00 EMaxC= 1.00D-01 BMatC= 9.60D-08 BMatP= 9.60D-08
 IDIUse=1 WtCom= 1.00D+00 WtEn= 0.00D+00
 Coeff-Com:  0.100D+01
 Coeff:      0.100D+01
 Gap=     0.285 Goal=   None    Shift=    0.000
 RMSDP=5.53D-06 MaxDP=1.09D-04 DE=-1.70D-05 OVMax= 8.85D-05

 Cycle  10  Pass 1  IDiag  1:
 E= -630.177229320017     Delta-E=       -0.000000106575 Rises=F Damp=F
 DIIS: error= 1.94D-05 at cycle   2 NSaved=   2.
 NSaved= 2 IEnMin= 2 EnMin= -630.177229320017     IErMin= 2 ErrMin= 1.94D-05
 ErrMax= 1.94D-05  0.00D+00 EMaxC= 1.00D-01 BMatC= 2.98D-08 BMatP= 9.60D-08
 IDIUse=1 WtCom= 1.00D+00 WtEn= 0.00D+00
 Coeff-Com:  0.281D+00 0.719D+00
 Coeff:      0.281D+00 0.719D+00
 Gap=     0.285 Goal=   None    Shift=    0.000
 RMSDP=2.03D-06 MaxDP=4.88D-05 DE=-1.07D-07 OVMax= 8.00D-05

 Cycle  11  Pass 1  IDiag  1:
 E= -630.177229323382     Delta-E=       -0.000000003365 Rises=F Damp=F
 DIIS: error= 2.02D-05 at cycle   3 NSaved=   3.
 NSaved= 3 IEnMin= 3 EnMin= -630.177229323382     IErMin= 2 ErrMin= 1.94D-05
 ErrMax= 2.02D-05  0.00D+00 EMaxC= 1.00D-01 BMatC= 2.74D-08 BMatP= 2.98D-08
 IDIUse=1 WtCom= 1.00D+00 WtEn= 0.00D+00
 Coeff-Com: -0.166D-01 0.493D+00 0.523D+00
 Coeff:     -0.166D-01 0.493D+00 0.523D+00
 Gap=     0.285 Goal=   None    Shift=    0.000
 RMSDP=9.67D-07 MaxDP=3.12D-05 DE=-3.37D-09 OVMax= 4.30D-05

 Cycle  12  Pass 1  IDiag  1:
 E= -630.177229342785     Delta-E=       -0.000000019402 Rises=F Damp=F
 DIIS: error= 1.88D-06 at cycle   4 NSaved=   4.
 NSaved= 4 IEnMin= 4 EnMin= -630.177229342785     IErMin= 4 ErrMin= 1.88D-06
 ErrMax= 1.88D-06  0.00D+00 EMaxC= 1.00D-01 BMatC= 4.56D-10 BMatP= 2.74D-08
 IDIUse=1 WtCom= 1.00D+00 WtEn= 0.00D+00
 Coeff-Com: -0.156D-01 0.260D+00 0.283D+00 0.472D+00
 Coeff:     -0.156D-01 0.260D+00 0.283D+00 0.472D+00
 Gap=     0.285 Goal=   None    Shift=    0.000
 RMSDP=1.91D-07 MaxDP=6.88D-06 DE=-1.94D-08 OVMax= 6.66D-06

 Cycle  13  Pass 1  IDiag  1:
 E= -630.177229343161     Delta-E=       -0.000000000377 Rises=F Damp=F
 DIIS: error= 1.06D-06 at cycle   5 NSaved=   5.
 NSaved= 5 IEnMin= 5 EnMin= -630.177229343161     IErMin= 5 ErrMin= 1.06D-06
 ErrMax= 1.06D-06  0.00D+00 EMaxC= 1.00D-01 BMatC= 5.15D-11 BMatP= 4.56D-10
 IDIUse=1 WtCom= 1.00D+00 WtEn= 0.00D+00
 Coeff-Com: -0.690D-02 0.925D-01 0.979D-01 0.276D+00 0.541D+00
 Coeff:     -0.690D-02 0.925D-01 0.979D-01 0.276D+00 0.541D+00
 Gap=     0.285 Goal=   None    Shift=    0.000
 RMSDP=6.27D-08 MaxDP=1.46D-06 DE=-3.77D-10 OVMax= 2.78D-06

 Cycle  14  Pass 1  IDiag  1:
 E= -630.177229343185     Delta-E=       -0.000000000024 Rises=F Damp=F
 DIIS: error= 5.40D-07 at cycle   6 NSaved=   6.
 NSaved= 6 IEnMin= 6 EnMin= -630.177229343185     IErMin= 6 ErrMin= 5.40D-07
 ErrMax= 5.40D-07  0.00D+00 EMaxC= 1.00D-01 BMatC= 1.15D-11 BMatP= 5.15D-11
 IDIUse=1 WtCom= 1.00D+00 WtEn= 0.00D+00
 Coeff-Com: -0.281D-02 0.308D-01 0.308D-01 0.126D+00 0.355D+00 0.460D+00
 Coeff:     -0.281D-02 0.308D-01 0.308D-01 0.126D+00 0.355D+00 0.460D+00
 Gap=     0.285 Goal=   None    Shift=    0.000
 RMSDP=2.26D-08 MaxDP=5.04D-07 DE=-2.41D-11 OVMax= 1.02D-06

 Cycle  15  Pass 1  IDiag  1:
 E= -630.177229343198     Delta-E=       -0.000000000013 Rises=F Damp=F
 DIIS: error= 7.46D-08 at cycle   7 NSaved=   7.
 NSaved= 7 IEnMin= 7 EnMin= -630.177229343198     IErMin= 7 ErrMin= 7.46D-08
 ErrMax= 7.46D-08  0.00D+00 EMaxC= 1.00D-01 BMatC= 4.76D-13 BMatP= 1.15D-11
 IDIUse=1 WtCom= 1.00D+00 WtEn= 0.00D+00
 Coeff-Com: -0.433D-03 0.324D-02 0.256D-02 0.294D-01 0.104D+00 0.219D+00
 Coeff-Com:  0.642D+00
 Coeff:     -0.433D-03 0.324D-02 0.256D-02 0.294D-01 0.104D+00 0.219D+00
 Coeff:      0.642D+00
 Gap=     0.285 Goal=   None    Shift=    0.000
 RMSDP=6.00D-09 MaxDP=1.04D-07 DE=-1.25D-11 OVMax= 1.74D-07

 SCF Done:  E(RB3LYP) =  -630.177229343     A.U. after   15 cycles
            NFock= 15  Conv=0.60D-08     -V/T= 2.0085
 KE= 6.248495897839D+02 PE=-3.211440210073D+03 EE= 1.085493836911D+03
 Leave Link  502 at Wed Oct 19 22:53:08 2011, MaxMem=  128000000 cpu:      97.0
 (Enter /home/foresman/gdv/l801.exe)
 DoSCS=F DFT=T ScalE2(SS,OS)=  1.000000  1.000000
 Range of M.O.s used for correlation:     1   151
 NBasis=   151 NAE=    51 NBE=    51 NFC=     0 NFV=     0
 NROrb=    151 NOA=    51 NOB=    51 NVA=   100 NVB=   100
 Leave Link  801 at Wed Oct 19 22:53:08 2011, MaxMem=  128000000 cpu:       0.3
 (Enter /home/foresman/gdv/l1002.exe)
 Minotr:  Closed shell wavefunction.
          Direct CPHF calculation.
          Differentiating once with respect to magnetic field using GIAOs.
          Electric field/nuclear overlap derivatives assumed to be zero.
          Requested convergence is 1.0D-08 RMS, and 1.0D-07 maximum.
          Secondary convergence is 1.0D-12 RMS, and 1.0D-12 maximum.
          NewPWx=T KeepS1=F KeepF1=F KeepIn=T MapXYZ=F SortEE=F KeepMc=T.
          MDV=     127999605 using IRadAn=       2.
 Generate precomputed XC quadrature information.
 Keep R3 ints in memory in canonical form, NReq=67618787.
 FoFCou: FMM=F IPFlag=           0 FMFlag=           0 FMFlg1=           0
         NFxFlg=           0 DoJE=F BraDBF=F KetDBF=F FulRan=T
         wScrn=  0.000000 ICntrl=     600 IOpCl=  0 I1Cent=           0 NGrid=           0
         NMat0=    1 NMatS0=  11476 NMatT0=    0 NMatD0=    1 NMtDS0=    0 NMtDT0=    0
 Symmetry not used in FoFCou.
          Solving linear equations simultaneously, MaxMat=       0.
 FoFJK:  IHMeth= 1 ICntrl=    6127 DoSepK=F KAlg= 0 I1Cent=   0 FoldK=F
 IRaf=       1 NMat=   1 IRICut=       1 DoRegI=T DoRafI=F ISym2E= 0.
          There are     3 degrees of freedom in the 1st order CPHF.  IDoFFX=0 NUNeed=     3.
      3 vectors produced by pass  0 Test12= 1.70D-13 3.33D-08 XBig12= 2.98D+01 8.67D-01.
 AX will form     3 AO Fock derivatives at one time.
      3 vectors produced by pass  1 Test12= 1.70D-13 3.33D-08 XBig12= 2.99D-02 6.93D-02.
      3 vectors produced by pass  2 Test12= 1.70D-13 3.33D-08 XBig12= 1.69D-04 4.95D-03.
      3 vectors produced by pass  3 Test12= 1.70D-13 3.33D-08 XBig12= 3.40D-07 1.38D-04.
      3 vectors produced by pass  4 Test12= 1.70D-13 3.33D-08 XBig12= 9.44D-10 9.23D-06.
      3 vectors produced by pass  5 Test12= 1.70D-13 3.33D-08 XBig12= 2.95D-12 4.83D-07.
 InvSVY:  IOpt=1 It=  1 EMax= 8.88D-16
 Solved reduced A of dimension    18 with     3 vectors.
 Calculating GIAO nuclear magnetic shielding tensors.
 SCF GIAO Magnetic shielding tensor (ppm):
      1  C    Isotropic =   124.2321   Anisotropy =    68.8168
   XX=   169.8315   YX=    -3.9725   ZX=    -1.1117
   XY=    -4.4547   YY=    99.6533   ZY=     0.2676
   XZ=    -1.5024   YZ=     0.5041   ZZ=   103.2115
   Eigenvalues:    99.3765   103.2099   170.1099
      2  C    Isotropic =   173.8252   Anisotropy =    40.9392
   XX=   162.8223   YX=   -10.1925   ZX=     0.6246
   XY=    -7.4821   YY=   199.0196   ZY=    -1.5291
   XZ=     0.2893   YZ=    -1.3911   ZZ=   159.6338
   Eigenvalues:   159.5666   160.7911   201.1181
      3  C    Isotropic =   178.7798   Anisotropy =    35.4169
   XX=   172.7888   YX=     8.0524   ZX=     7.4941
   XY=     7.5642   YY=   169.7436   ZY=    14.1561
   XZ=     3.3167   YZ=    13.4801   ZZ=   193.8070
   Eigenvalues:   161.0844   172.8640   202.3911
      4  C    Isotropic =   178.6627   Anisotropy =    35.4509
   XX=   172.1707   YX=     6.9877   ZX=    -7.0155
   XY=     6.7533   YY=   167.4733   ZY=   -12.2596
   XZ=    -3.0076   YZ=   -11.5494   ZZ=   196.3440
   Eigenvalues:   160.9209   172.7705   202.2966
      5  O    Isotropic =   159.5203   Anisotropy =    85.9237
   XX=   114.1244   YX=    -8.1449   ZX=     3.0472
   XY=  -134.6228   YY=   162.5173   ZY=     5.5033
   XZ=    -5.5860   YZ=     9.3758   ZZ=   201.9192
   Eigenvalues:    62.8690   198.8891   216.8028
      6  C    Isotropic =    62.2719   Anisotropy =    62.2824
   XX=    16.4941   YX=    40.3741   ZX=    -1.0138
   XY=    58.8501   YY=    75.5651   ZY=     0.2407
   XZ=    -2.9963   YZ=     0.9342   ZZ=    94.7564
   Eigenvalues:   -11.7474    94.7696   103.7935
      7  O    Isotropic =    42.4051   Anisotropy =   392.4408
   XX=   -66.4528   YX=   -10.7005   ZX=     2.3619
   XY=    -6.6320   YY=  -109.6327   ZY=    18.8732
   XZ=    -2.0426   YZ=    15.9154   ZZ=   303.3008
   Eigenvalues:  -112.0123   -64.8047   304.0323
      8  N    Isotropic =   180.7332   Anisotropy =   133.2660
   XX=   269.2774   YX=    -2.1547   ZX=     1.2411
   XY=    14.8537   YY=   129.4903   ZY=     5.5328
   XZ=    -4.2441   YZ=     6.5177   ZZ=   143.4318
   Eigenvalues:   126.9526   145.6697   269.5772
      9  C    Isotropic =   159.6785   Anisotropy =    46.8025
   XX=   177.9890   YX=   -18.6224   ZX=     0.7598
   XY=   -16.4630   YY=   167.0000   ZY=     0.3784
   XZ=    -3.4153   YZ=    -2.7105   ZZ=   134.0463
   Eigenvalues:   133.8964   154.2588   190.8801
     10  C    Isotropic =   170.4446   Anisotropy =    28.7737
   XX=   174.2286   YX=     2.7488   ZX=    -5.3898
   XY=     2.4210   YY=   187.7426   ZY=     7.1242
   XZ=   -11.9434   YZ=    10.1145   ZZ=   149.3627
   Eigenvalues:   144.7567   176.9501   189.6271
     11  C    Isotropic =   132.9061   Anisotropy =    58.8255
   XX=   148.3179   YX=    18.7832   ZX=   -11.3035
   XY=    23.4535   YY=   150.4122   ZY=   -12.5023
   XZ=    -3.2253   YZ=    -3.4592   ZZ=    99.9882
   Eigenvalues:    98.3726   128.2226   172.1231
     12  C    Isotropic =   151.9240   Anisotropy =    39.2711
   XX=   166.7717   YX=    17.0115   ZX=     6.5881
   XY=    14.8769   YY=   154.8758   ZY=    -2.2058
   XZ=     9.8296   YZ=    -9.8783   ZZ=   134.1244
   Eigenvalues:   128.0155   149.6518   178.1047
     13  O    Isotropic =   278.2085   Anisotropy =    53.7177
   XX=   249.3129   YX=    -8.8128   ZX=     8.7248
   XY=    11.5437   YY=   305.3659   ZY=     5.6028
   XZ=     0.0340   YZ=    28.3503   ZZ=   279.9467
   Eigenvalues:   248.6780   271.9272   314.0203
     14  H    Isotropic =    32.2193   Anisotropy =    16.7642
   XX=    28.3799   YX=     3.0792   ZX=    -1.2338
   XY=     3.9398   YY=    41.1147   ZY=     4.9357
   XZ=    -0.9001   YZ=     5.2783   ZZ=    27.1633
   Eigenvalues:    24.2706    28.9918    43.3954
     15  H    Isotropic =    31.7922   Anisotropy =     8.8083
   XX=    35.1373   YX=    -3.5809   ZX=     0.0784
   XY=    -3.9223   YY=    32.0924   ZY=    -0.1164
   XZ=     0.0301   YZ=    -0.0463   ZZ=    28.1470
   Eigenvalues:    28.1451    29.5671    37.6644
     16  H    Isotropic =    31.4192   Anisotropy =     7.9025
   XX=    29.0689   YX=    -0.1681   ZX=     0.8912
   XY=     0.7182   YY=    34.5242   ZY=     4.0755
   XZ=     1.0543   YZ=     2.9824   ZZ=    30.6644
   Eigenvalues:    28.0596    29.5104    36.6875
     17  H    Isotropic =    31.3518   Anisotropy =     7.9382
   XX=    28.8645   YX=    -0.3038   ZX=    -0.5475
   XY=     0.5032   YY=    33.8355   ZY=    -4.5066
   XZ=    -0.9168   YZ=    -3.1303   ZZ=    31.3554
   Eigenvalues:    28.1587    29.2528    36.6439
     18  H    Isotropic =    31.9872   Anisotropy =     9.1618
   XX=    36.4117   YX=     1.6036   ZX=     2.7431
   XY=     1.8960   YY=    28.8055   ZY=     1.3226
   XZ=     2.9826   YZ=     1.3372   ZZ=    30.7444
   Eigenvalues:    28.1152    29.7513    38.0950
     19  H    Isotropic =    31.7932   Anisotropy =     7.9045
   XX=    29.6254   YX=     0.4906   ZX=     0.7708
   XY=     0.2956   YY=    28.7524   ZY=    -0.1053
   XZ=    -0.3955   YZ=    -1.2819   ZZ=    37.0018
   Eigenvalues:    28.5411    29.7757    37.0629
     20  H    Isotropic =    29.7642   Anisotropy =     6.6167
   XX=    28.8425   YX=    -1.0460   ZX=     2.6891
   XY=    -1.6679   YY=    33.2047   ZY=     1.7184
   XZ=     3.4501   YZ=     3.4374   ZZ=    27.2454
   Eigenvalues:    23.9765    31.1407    34.1753
     21  H    Isotropic =    31.9846   Anisotropy =     9.1205
   XX=    36.1864   YX=     1.2931   ZX=    -2.9764
   XY=     1.5723   YY=    28.5847   ZY=    -1.2322
   XZ=    -3.3557   YZ=    -1.1404   ZZ=    31.1826
   Eigenvalues:    28.1167    29.7721    38.0649
     22  H    Isotropic =    29.8214   Anisotropy =     6.5239
   XX=    28.7151   YX=    -1.4027   ZX=    -2.4960
   XY=    -2.0033   YY=    32.7828   ZY=    -2.0877
   XZ=    -3.3531   YZ=    -3.7231   ZZ=    27.9662
   Eigenvalues:    24.1218    31.1717    34.1707
     23  H    Isotropic =    31.8916   Anisotropy =     7.7851
   XX=    29.8033   YX=     0.4448   ZX=    -0.4068
   XY=     0.3275   YY=    29.0230   ZY=     0.7017
   XZ=     0.6402   YZ=     2.0128   ZZ=    36.8485
   Eigenvalues:    28.6778    29.9153    37.0816
     24  H    Isotropic =    29.4377   Anisotropy =     8.7105
   XX=    29.0260   YX=    -0.8792   ZX=    -0.4260
   XY=    -0.1678   YY=    32.4999   ZY=     5.1547
   XZ=    -0.0269   YZ=     4.3611   ZZ=    26.7873
   Eigenvalues:    24.0935    28.9750    35.2447
     25  H    Isotropic =    29.6544   Anisotropy =     9.3974
   XX=    29.0730   YX=    -2.0181   ZX=     0.2049
   XY=    -1.5304   YY=    30.9800   ZY=    -5.5094
   XZ=     0.2527   YZ=    -5.5726   ZZ=    28.9103
   Eigenvalues:    24.1156    28.9283    35.9194
     26  H    Isotropic =    30.8533   Anisotropy =    10.4503
   XX=    34.9875   YX=    -3.4482   ZX=     2.3729
   XY=    -4.3776   YY=    30.8660   ZY=    -1.1608
   XZ=     1.6448   YZ=    -1.0374   ZZ=    26.7064
   Eigenvalues:    26.2314    28.5083    37.8201
     27  H    Isotropic =    30.6562   Anisotropy =     8.3036
   XX=    30.6329   YX=     1.0287   ZX=    -4.2551
   XY=     0.4452   YY=    28.3692   ZY=     1.6988
   XZ=    -4.0924   YZ=     1.0906   ZZ=    32.9667
   Eigenvalues:    26.4017    29.3750    36.1920
     28  H    Isotropic =    28.5925   Anisotropy =     5.0315
   XX=    28.1182   YX=     1.5513   ZX=     0.4446
   XY=     1.0899   YY=    26.5104   ZY=     0.1981
   XZ=     2.2743   YZ=     1.3700   ZZ=    31.1490
   Eigenvalues:    25.7682    28.0625    31.9469
     29  H    Isotropic =    29.9173   Anisotropy =     7.0523
   XX=    29.1229   YX=     1.6015   ZX=     0.9694
   XY=     1.8986   YY=    30.5932   ZY=    -4.2055
   XZ=     0.4058   YZ=    -4.1312   ZZ=    30.0359
   Eigenvalues:    25.3569    29.7763    34.6189
     30  H    Isotropic =    29.5120   Anisotropy =     5.3195
   XX=    32.1379   YX=    -0.4938   ZX=    -0.6178
   XY=    -0.4779   YY=    30.7697   ZY=     3.4058
   XZ=    -1.2518   YZ=     2.8655   ZZ=    25.6284
   Eigenvalues:    24.0933    31.3843    33.0583
 End of Minotr F.D. properties file   721 does not exist.
 End of Minotr F.D. properties file   722 does not exist.
 Leave Link 1002 at Wed Oct 19 22:53:18 2011, MaxMem=  128000000 cpu:      80.0
 (Enter /home/foresman/gdv/l1101.exe)
 Using compressed storage, NAtomX=    30.
 Will process     31 centers per pass.
 Leave Link 1101 at Wed Oct 19 22:53:18 2011, MaxMem=  128000000 cpu:       1.9
 (Enter /home/foresman/gdv/l1102.exe)
 Symmetrizing basis deriv contribution to polar:
 IMax=3 JMax=2 DiffMx= 0.00D+00
 Leave Link 1102 at Wed Oct 19 22:53:18 2011, MaxMem=  128000000 cpu:       0.4
 (Enter /home/foresman/gdv/l1110.exe)
 Forming Gx(P) for the SCF density, NAtomX=    30.
 Integral derivatives from FoFJK, PRISM(SPDF).
 Do as many integral derivatives as possible in FoFJK.
 G2DrvN: MDV=     127999656.
 G2DrvN: will do    31 centers at a time, making    1 passes.
 Calling FoFCou, ICntrl=  3107 FMM=F I1Cent=   0 AccDes= 0.00D+00.
 FoFJK:  IHMeth= 1 ICntrl=    3107 DoSepK=F KAlg= 0 I1Cent=   0 FoldK=F
 IRaf=       0 NMat=   1 IRICut=       1 DoRegI=T DoRafI=F ISym2E= 0.
 FoFCou: FMM=F IPFlag=           0 FMFlag=      100000 FMFlg1=           0
         NFxFlg=           0 DoJE=F BraDBF=F KetDBF=F FulRan=T
         wScrn=  0.000000 ICntrl=    3107 IOpCl=  0 I1Cent=           0 NGrid=           0
         NMat0=    1 NMatS0=      1 NMatT0=    0 NMatD0=    1 NMtDS0=    0 NMtDT0=    0
 Symmetry not used in FoFCou.
 End of G2Drv F.D. properties file   721 does not exist.
 End of G2Drv F.D. properties file   722 does not exist.
 Leave Link 1110 at Wed Oct 19 22:53:49 2011, MaxMem=  128000000 cpu:     248.7
 (Enter /home/foresman/gdv/l1002.exe)
 Minotr:  Closed shell wavefunction.
          IDoAtm=111111111111111111111111111111
          Direct CPHF calculation.
          Differentiating once with respect to electric field.
                with respect to dipole field.
          Differentiating once with respect to nuclear coordinates.
          Requested convergence is 1.0D-08 RMS, and 1.0D-07 maximum.
          Secondary convergence is 1.0D-12 RMS, and 1.0D-12 maximum.
          NewPWx=T KeepS1=F KeepF1=F KeepIn=T MapXYZ=F SortEE=F KeepMc=T.
          MDV=     127999545 using IRadAn=       2.
 Generate precomputed XC quadrature information.
 Keep R1 ints in memory in canonical form, NReq=67619516.
 FoFCou: FMM=F IPFlag=           0 FMFlag=           0 FMFlg1=           0
         NFxFlg=           0 DoJE=F BraDBF=F KetDBF=F FulRan=T
         wScrn=  0.000000 ICntrl=     600 IOpCl=  0 I1Cent=           0 NGrid=           0
         NMat0=    1 NMatS0=  11476 NMatT0=    0 NMatD0=    1 NMtDS0=    0 NMtDT0=    0
 Symmetry not used in FoFCou.
          Solving linear equations simultaneously, MaxMat=       0.
          There are    93 degrees of freedom in the 1st order CPHF.  IDoFFX=5 NUNeed=    93.
     90 vectors produced by pass  0 Test12= 5.48D-15 1.08D-09 XBig12= 7.63D+01 3.96D+00.
 AX will form    90 AO Fock derivatives at one time.
     90 vectors produced by pass  1 Test12= 5.48D-15 1.08D-09 XBig12= 1.04D+01 7.69D-01.
     90 vectors produced by pass  2 Test12= 5.48D-15 1.08D-09 XBig12= 4.03D-02 3.40D-02.
     90 vectors produced by pass  3 Test12= 5.48D-15 1.08D-09 XBig12= 5.39D-05 8.91D-04.
     90 vectors produced by pass  4 Test12= 5.48D-15 1.08D-09 XBig12= 3.85D-08 1.81D-05.
     42 vectors produced by pass  5 Test12= 5.48D-15 1.08D-09 XBig12= 2.09D-11 5.73D-07.
      3 vectors produced by pass  6 Test12= 5.48D-15 1.08D-09 XBig12= 9.84D-15 1.25D-08.
 InvSVY:  IOpt=1 It=  1 EMax= 8.88D-15
 Solved reduced A of dimension   495 with    93 vectors.
 FullF1:  Do perturbations    1 to     3.
 Isotropic polarizability for W=    0.000000      103.74 Bohr**3.
 Dipole-magnetic dipole polarizability for W=    0.000000:
                 1             2             3 
      1   0.220464D+01 -0.860404D+00 -0.200551D+01
      2  -0.371479D+01  0.107003D+01 -0.287373D+02
      3  -0.283721D+02 -0.392916D+01 -0.399698D+01
 DQ contribution to OR G for W=    0.000000:
                 1             2             3 
      1   0.152050D+01  0.566002D+00 -0.346694D+02
      2  -0.944753D+01  0.640312D+01 -0.812581D+02
      3  -0.610877D+01  0.476938D+02 -0.792362D+01
 Optical Rotation G' tensor for W=    0.000000:
                 1             2             3 
      1  -0.108335D+01  0.336079D-01  0.249714D+01
      2   0.336079D-01  0.704609D+00  0.397108D+01
      3   0.249714D+01  0.397108D+01 -0.343571D+00
 OR G Eigenvalues:    -4.8276    -0.5996     4.7049  Iso=     0.2408
 Eigenvectors:
   (1)  -0.473521  -0.511715   0.716886
   (2)   0.829610  -0.532509   0.167872
   (3)   0.295845   0.674227   0.676678
 w=    0.000000 a.u., Optical Rotation Beta=      0.2408 au.
 Molar Mass =    187.2382 grams/mole, [Alpha]D (static) =       49.70 deg.
 AAT (total):
 -0.0096 -0.0231 -0.1081
  0.0054 -0.0048 -0.3700
  0.1173  0.3473  0.0065
  0.0034  0.0091  0.1856
 -0.0015  0.0089  0.1705
 -0.1095 -0.0084 -0.0157
  0.0570  0.1444 -0.1459
 -0.1629 -0.1201  0.2307
  0.0277 -0.1996  0.0780
 -0.0579 -0.1607 -0.1355
  0.1685  0.1256  0.2043
  0.0145 -0.2109 -0.0782
  0.0061  0.0450  0.2348
 -0.0411 -0.0377  0.2782
 -0.5751 -0.3471  0.0188
 -0.0128 -0.0098  1.0065
  0.0173  0.0312  0.1646
 -0.2661  0.0922  0.0037
 -0.0048 -0.0270 -1.1973
  0.0288 -0.0317 -0.0477
  1.0737 -0.3904  0.0324
  0.0137 -0.0052 -0.5232
  0.0091 -0.0501 -0.3952
  0.0646  0.4194  0.0394
 -0.0221 -0.0875  0.1151
  0.0618  0.0326  0.2052
 -0.0097 -0.2177 -0.0861
 -0.0309  0.0053 -0.0266
 -0.0439  0.1117 -0.2795
  0.0870  0.0431 -0.0493
  0.0254 -0.0294  0.0639
  0.0370  0.1727  0.8935
  0.0871 -0.5317 -0.1251
 -0.0340  0.0999  0.0266
 -0.0513  0.0272  0.2847
 -0.0872 -0.2351 -0.0022
 -0.0443  0.2493  0.2175
  0.1346 -0.3903 -0.9201
 -0.4546  0.8996  0.5079
  0.0667 -0.0905 -0.2678
 -0.2486  0.2366  0.0079
  0.2778 -0.4156 -0.3788
  0.0054  0.0133  0.1221
 -0.0010 -0.0003 -0.2503
  0.0798  0.2658 -0.0035
 -0.0782  0.0273 -0.0365
 -0.2005 -0.0955  0.1038
 -0.0370 -0.1528  0.2221
  0.0697 -0.0442 -0.0492
  0.2010  0.0882  0.0651
 -0.0572 -0.1733 -0.2044
  0.0025  0.1260 -0.0676
  0.0388 -0.0148 -0.2663
 -0.0055  0.2280  0.0137
 -0.0537 -0.0471 -0.0102
  0.1051  0.1755  0.0149
  0.1657 -0.2462 -0.0722
 -0.0559 -0.0265  0.2645
 -0.0656 -0.0420  0.1475
 -0.2065  0.0596  0.1225
 -0.0045 -0.1154 -0.0575
 -0.0463  0.0098 -0.2674
 -0.0023  0.2319 -0.0062
  0.0571  0.0419  0.2532
  0.0522  0.0565  0.1302
 -0.2177  0.0461 -0.1412
  0.0586  0.0290 -0.0117
 -0.0863 -0.1940  0.0430
  0.1734 -0.2297  0.0854
  0.0588 -0.1042  0.0825
  0.1810  0.0319 -0.0440
  0.0207  0.0606 -0.1468
 -0.0345  0.1264  0.0426
 -0.1936 -0.0130  0.0304
  0.1247  0.1193  0.1068
  0.0350  0.1853  0.1456
 -0.0998 -0.0641  0.1513
 -0.0482 -0.1336  0.0325
  0.0013 -0.1985 -0.0237
  0.1905 -0.0726  0.1202
  0.0591  0.1584  0.0542
  0.0247  0.0458 -0.0271
 -0.0640 -0.0308 -0.0552
 -0.0241  0.2505  0.0370
  0.0081 -0.2237 -0.0805
  0.1567 -0.0154 -0.0283
 -0.1070  0.0847  0.0640
  0.0449  0.1048 -0.1128
 -0.1289  0.0217 -0.1474
  0.0023  0.0410 -0.1537
 End of Minotr F.D. properties file   721 does not exist.
 End of Minotr F.D. properties file   722 does not exist.
 Leave Link 1002 at Wed Oct 19 22:54:18 2011, MaxMem=  128000000 cpu:     231.3
 (Enter /home/foresman/gdv/l601.exe)
 Copying SCF densities to generalized density rwf, IOpCl= 0 IROHF=0.

 **********************************************************************

            Population analysis using the SCF density.

 **********************************************************************

 Orbital symmetries:
       Occupied  (A) (A) (A) (A) (A) (A) (A) (A) (A) (A) (A) (A)
                 (A) (A) (A) (A) (A) (A) (A) (A) (A) (A) (A) (A)
                 (A) (A) (A) (A) (A) (A) (A) (A) (A) (A) (A) (A)
                 (A) (A) (A) (A) (A) (A) (A) (A) (A) (A) (A) (A)
                 (A) (A) (A)
       Virtual   (A) (A) (A) (A) (A) (A) (A) (A) (A) (A) (A) (A)
                 (A) (A) (A) (A) (A) (A) (A) (A) (A) (A) (A) (A)
                 (A) (A) (A) (A) (A) (A) (A) (A) (A) (A) (A) (A)
                 (A) (A) (A) (A) (A) (A) (A) (A) (A) (A) (A) (A)
                 (A) (A) (A) (A) (A) (A) (A) (A) (A) (A) (A) (A)
                 (A) (A) (A) (A) (A) (A) (A) (A) (A) (A) (A) (A)
                 (A) (A) (A) (A) (A) (A) (A) (A) (A) (A) (A) (A)
                 (A) (A) (A) (A) (A) (A) (A) (A) (A) (A) (A) (A)
                 (A) (A) (A) (A)
 The electronic state is 1-A.
 Alpha  occ. eigenvalues --  -19.05744 -19.03506 -18.99523 -14.27763 -10.25869
 Alpha  occ. eigenvalues --  -10.18687 -10.18467 -10.16057 -10.15741 -10.12759
 Alpha  occ. eigenvalues --  -10.10938 -10.10098 -10.10005  -1.07727  -1.01552
 Alpha  occ. eigenvalues --   -0.99396  -0.94134  -0.80966  -0.78019  -0.73897
 Alpha  occ. eigenvalues --   -0.68952  -0.68533  -0.65573  -0.59807  -0.57907
 Alpha  occ. eigenvalues --   -0.54330  -0.52661  -0.49518  -0.47651  -0.45996
 Alpha  occ. eigenvalues --   -0.44961  -0.44565  -0.43255  -0.42160  -0.41820
 Alpha  occ. eigenvalues --   -0.40414  -0.39275  -0.38573  -0.38110  -0.37406
 Alpha  occ. eigenvalues --   -0.37055  -0.36106  -0.35495  -0.33889  -0.33838
 Alpha  occ. eigenvalues --   -0.32082  -0.31383  -0.26700  -0.26541  -0.24219
 Alpha  occ. eigenvalues --   -0.22706
 Alpha virt. eigenvalues --    0.05772   0.07938   0.10212   0.11163   0.11939
 Alpha virt. eigenvalues --    0.14146   0.16011   0.16447   0.16909   0.17326
 Alpha virt. eigenvalues --    0.17788   0.17912   0.19030   0.19561   0.19677
 Alpha virt. eigenvalues --    0.20361   0.21387   0.22033   0.22236   0.23611
 Alpha virt. eigenvalues --    0.24043   0.24873   0.25486   0.26317   0.27526
 Alpha virt. eigenvalues --    0.27890   0.28433   0.29371   0.30351   0.42942
 Alpha virt. eigenvalues --    0.49092   0.64883   0.65962   0.66078   0.66463
 Alpha virt. eigenvalues --    0.68771   0.69213   0.69727   0.71820   0.74395
 Alpha virt. eigenvalues --    0.75146   0.76137   0.76857   0.77169   0.78076
 Alpha virt. eigenvalues --    0.80138   0.81052   0.83185   0.86257   0.86917
 Alpha virt. eigenvalues --    0.90184   0.92933   0.93694   0.95621   0.96725
 Alpha virt. eigenvalues --    0.97660   0.99364   1.00965   1.02760   1.04323
 Alpha virt. eigenvalues --    1.05990   1.06551   1.07247   1.08492   1.09025
 Alpha virt. eigenvalues --    1.09869   1.10445   1.11400   1.12279   1.13425
 Alpha virt. eigenvalues --    1.13989   1.15707   1.16323   1.18048   1.22560
 Alpha virt. eigenvalues --    1.28695   1.45400   1.53652   1.55711   1.57736
 Alpha virt. eigenvalues --    1.62945   1.63858   1.64894   1.71909   1.72639
 Alpha virt. eigenvalues --    1.74419   1.76570   1.82308   1.82962   1.95594
 Alpha virt. eigenvalues --    1.98791   1.99062   2.12462   2.13689   2.27862
 Alpha virt. eigenvalues --    2.34863   2.84736   3.09655   3.31523   3.40833
          Condensed to atoms (all electrons):
              1          2          3          4          5          6
     1  C    5.284800   0.289539   0.249318   0.248828   0.197217  -0.050519
     2  C    0.289539   5.353588  -0.081902  -0.082014  -0.039020   0.003849
     3  C    0.249318  -0.081902   5.474507  -0.084756  -0.036126  -0.007882
     4  C    0.248828  -0.082014  -0.084756   5.475952  -0.036145  -0.007991
     5  O    0.197217  -0.039020  -0.036126  -0.036145   8.328267   0.230522
     6  C   -0.050519   0.003849  -0.007882  -0.007991   0.230522   4.284332
     7  O    0.001306   0.000064  -0.009782  -0.009730  -0.045521   0.469735
     8  N    0.002749  -0.000043  -0.000280  -0.000293  -0.078137   0.195793
     9  C   -0.000071   0.000001   0.000004   0.000004   0.001554  -0.047916
    10  C    0.000001   0.000000   0.000000   0.000000  -0.000023   0.005874
    11  C   -0.000003   0.000000   0.000000   0.000000   0.000233   0.002617
    12  C   -0.000033  -0.000047   0.000010   0.000027   0.006748  -0.026756
    13  O    0.000000   0.000000   0.000000   0.000000   0.000000  -0.000004
    14  H    0.000000   0.000000   0.000000   0.000000   0.000000   0.000000
    15  H   -0.044555   0.350565   0.001234   0.001192   0.001901  -0.000039
    16  H   -0.038515   0.359896   0.004559  -0.003603   0.001975  -0.000004
    17  H   -0.038342   0.360502  -0.003539   0.004540   0.001991  -0.000005
    18  H   -0.035883  -0.000433   0.340136   0.000852   0.001571   0.000334
    19  H   -0.040148  -0.003162   0.358371   0.004336   0.001044   0.000458
    20  H   -0.036557   0.003570   0.342821  -0.004025  -0.003612   0.001899
    21  H   -0.035643  -0.000424   0.000857   0.340271   0.001569   0.000339
    22  H   -0.036445   0.003593  -0.004083   0.342840  -0.003609   0.001902
    23  H   -0.040330  -0.003186   0.004354   0.357907   0.001045   0.000484
    24  H    0.000001   0.000000  -0.000001   0.000001   0.000024  -0.000430
    25  H    0.000002   0.000000   0.000000  -0.000001   0.000002  -0.001820
    26  H    0.000000   0.000000   0.000000   0.000000   0.000000  -0.000037
    27  H    0.000000   0.000000   0.000000   0.000000   0.000000  -0.000151
    28  H    0.000000   0.000000   0.000000   0.000000   0.000003  -0.000188
    29  H    0.000000   0.000000  -0.000002   0.000001   0.000353  -0.001710
    30  H   -0.000119   0.000042   0.000019  -0.000017   0.007625  -0.001732
              7          8          9         10         11         12
     1  C    0.001306   0.002749  -0.000071   0.000001  -0.000003  -0.000033
     2  C    0.000064  -0.000043   0.000001   0.000000   0.000000  -0.000047
     3  C   -0.009782  -0.000280   0.000004   0.000000   0.000000   0.000010
     4  C   -0.009730  -0.000293   0.000004   0.000000   0.000000   0.000027
     5  O   -0.045521  -0.078137   0.001554  -0.000023   0.000233   0.006748
     6  C    0.469735   0.195793  -0.047916   0.005874   0.002617  -0.026756
     7  O    8.143106  -0.070733   0.005800   0.000191  -0.000023   0.001121
     8  N   -0.070733   7.434453   0.236797  -0.047712  -0.042930   0.197839
     9  C    0.005800   0.236797   5.213985   0.225742  -0.081170  -0.066971
    10  C    0.000191  -0.047712   0.225742   5.537850   0.230710  -0.111746
    11  C   -0.000023  -0.042930  -0.081170   0.230710   5.287856   0.172531
    12  C    0.001121   0.197839  -0.066971  -0.111746   0.172531   5.407150
    13  O    0.000000   0.000662   0.001539  -0.040636   0.272046  -0.046606
    14  H    0.000000  -0.000012  -0.000241   0.006357  -0.045584  -0.000706
    15  H    0.000002   0.000000   0.000000   0.000000   0.000000   0.000000
    16  H    0.000001  -0.000005   0.000000   0.000000   0.000000  -0.000010
    17  H    0.000001  -0.000006   0.000000   0.000000   0.000000   0.000025
    18  H    0.000086   0.000001   0.000000   0.000000   0.000000   0.000000
    19  H    0.000037  -0.000008   0.000000   0.000000   0.000000   0.000004
    20  H    0.024062   0.000147   0.000001   0.000000   0.000000  -0.000011
    21  H    0.000084   0.000001   0.000000   0.000000   0.000000   0.000000
    22  H    0.023941   0.000138   0.000002   0.000000   0.000000  -0.000009
    23  H    0.000033  -0.000006   0.000000   0.000000   0.000000  -0.000004
    24  H    0.003085  -0.038319   0.370653  -0.030756   0.004089   0.002043
    25  H    0.001247  -0.042473   0.366536  -0.040447  -0.001105   0.002661
    26  H    0.000000   0.002059  -0.033364   0.377475  -0.031154   0.004627
    27  H    0.000001   0.001545  -0.034232   0.352541  -0.043987  -0.003088
    28  H    0.000000   0.004154   0.005602  -0.054678   0.338009  -0.068023
    29  H    0.000006  -0.037040   0.003962  -0.005361  -0.045659   0.340917
    30  H    0.000035  -0.035063   0.002412   0.004653  -0.024784   0.360795
             13         14         15         16         17         18
     1  C    0.000000   0.000000  -0.044555  -0.038515  -0.038342  -0.035883
     2  C    0.000000   0.000000   0.350565   0.359896   0.360502  -0.000433
     3  C    0.000000   0.000000   0.001234   0.004559  -0.003539   0.340136
     4  C    0.000000   0.000000   0.001192  -0.003603   0.004540   0.000852
     5  O    0.000000   0.000000   0.001901   0.001975   0.001991   0.001571
     6  C   -0.000004   0.000000  -0.000039  -0.000004  -0.000005   0.000334
     7  O    0.000000   0.000000   0.000002   0.000001   0.000001   0.000086
     8  N    0.000662  -0.000012   0.000000  -0.000005  -0.000006   0.000001
     9  C    0.001539  -0.000241   0.000000   0.000000   0.000000   0.000000
    10  C   -0.040636   0.006357   0.000000   0.000000   0.000000   0.000000
    11  C    0.272046  -0.045584   0.000000   0.000000   0.000000   0.000000
    12  C   -0.046606  -0.000706   0.000000  -0.000010   0.000025   0.000000
    13  O    8.135213   0.244624   0.000000   0.000000   0.000000   0.000000
    14  H    0.244624   0.463532   0.000000   0.000000   0.000000   0.000000
    15  H    0.000000   0.000000   0.548941  -0.024000  -0.023843   0.001642
    16  H    0.000000   0.000000  -0.024000   0.527984  -0.026006  -0.000083
    17  H    0.000000   0.000000  -0.023843  -0.026006   0.523716   0.000155
    18  H    0.000000   0.000000   0.001642  -0.000083   0.000155   0.554687
    19  H    0.000000   0.000000   0.000123  -0.000048   0.003744  -0.024688
    20  H    0.000000   0.000000   0.000011  -0.000085  -0.000046  -0.020704
    21  H    0.000000   0.000000   0.001655   0.000161  -0.000082   0.001175
    22  H    0.000000   0.000000   0.000011  -0.000047  -0.000084   0.000223
    23  H    0.000000   0.000000   0.000127   0.003794  -0.000049  -0.000069
    24  H   -0.000011   0.000001   0.000000   0.000000   0.000000   0.000000
    25  H   -0.000014   0.000001   0.000000   0.000000   0.000000   0.000000
    26  H    0.001138  -0.000086   0.000000   0.000000   0.000000   0.000000
    27  H    0.004398  -0.000194   0.000000   0.000000   0.000000   0.000000
    28  H   -0.033510  -0.004772   0.000000   0.000000   0.000000   0.000000
    29  H    0.006012  -0.000369   0.000000  -0.000003   0.000009   0.000000
    30  H    0.000841   0.000510   0.000000   0.000169  -0.000014   0.000000
             19         20         21         22         23         24
     1  C   -0.040148  -0.036557  -0.035643  -0.036445  -0.040330   0.000001
     2  C   -0.003162   0.003570  -0.000424   0.003593  -0.003186   0.000000
     3  C    0.358371   0.342821   0.000857  -0.004083   0.004354  -0.000001
     4  C    0.004336  -0.004025   0.340271   0.342840   0.357907   0.000001
     5  O    0.001044  -0.003612   0.001569  -0.003609   0.001045   0.000024
     6  C    0.000458   0.001899   0.000339   0.001902   0.000484  -0.000430
     7  O    0.000037   0.024062   0.000084   0.023941   0.000033   0.003085
     8  N   -0.000008   0.000147   0.000001   0.000138  -0.000006  -0.038319
     9  C    0.000000   0.000001   0.000000   0.000002   0.000000   0.370653
    10  C    0.000000   0.000000   0.000000   0.000000   0.000000  -0.030756
    11  C    0.000000   0.000000   0.000000   0.000000   0.000000   0.004089
    12  C    0.000004  -0.000011   0.000000  -0.000009  -0.000004   0.002043
    13  O    0.000000   0.000000   0.000000   0.000000   0.000000  -0.000011
    14  H    0.000000   0.000000   0.000000   0.000000   0.000000   0.000001
    15  H    0.000123   0.000011   0.001655   0.000011   0.000127   0.000000
    16  H   -0.000048  -0.000085   0.000161  -0.000047   0.003794   0.000000
    17  H    0.003744  -0.000046  -0.000082  -0.000084  -0.000049   0.000000
    18  H   -0.024688  -0.020704   0.001175   0.000223  -0.000069   0.000000
    19  H    0.534236  -0.023214  -0.000069   0.000009  -0.000098   0.000000
    20  H   -0.023214   0.483087   0.000213   0.002907   0.000009   0.000008
    21  H   -0.000069   0.000213   0.553640  -0.020687  -0.024774   0.000000
    22  H    0.000009   0.002907  -0.020687   0.483601  -0.023458  -0.000003
    23  H   -0.000098   0.000009  -0.024774  -0.023458   0.537754   0.000000
    24  H    0.000000   0.000008   0.000000  -0.000003   0.000000   0.508057
    25  H    0.000000  -0.000001   0.000000   0.000006   0.000000  -0.038821
    26  H    0.000000   0.000000   0.000000   0.000000   0.000000   0.000689
    27  H    0.000000   0.000000   0.000000   0.000000   0.000000  -0.004493
    28  H    0.000000   0.000000   0.000000   0.000000   0.000000  -0.000030
    29  H    0.000002   0.000002   0.000000   0.000000   0.000000   0.000337
    30  H   -0.000001  -0.000001   0.000000   0.000003   0.000026  -0.000120
             25         26         27         28         29         30
     1  C    0.000002   0.000000   0.000000   0.000000   0.000000  -0.000119
     2  C    0.000000   0.000000   0.000000   0.000000   0.000000   0.000042
     3  C    0.000000   0.000000   0.000000   0.000000  -0.000002   0.000019
     4  C   -0.000001   0.000000   0.000000   0.000000   0.000001  -0.000017
     5  O    0.000002   0.000000   0.000000   0.000003   0.000353   0.007625
     6  C   -0.001820  -0.000037  -0.000151  -0.000188  -0.001710  -0.001732
     7  O    0.001247   0.000000   0.000001   0.000000   0.000006   0.000035
     8  N   -0.042473   0.002059   0.001545   0.004154  -0.037040  -0.035063
     9  C    0.366536  -0.033364  -0.034232   0.005602   0.003962   0.002412
    10  C   -0.040447   0.377475   0.352541  -0.054678  -0.005361   0.004653
    11  C   -0.001105  -0.031154  -0.043987   0.338009  -0.045659  -0.024784
    12  C    0.002661   0.004627  -0.003088  -0.068023   0.340917   0.360795
    13  O   -0.000014   0.001138   0.004398  -0.033510   0.006012   0.000841
    14  H    0.000001  -0.000086  -0.000194  -0.004772  -0.000369   0.000510
    15  H    0.000000   0.000000   0.000000   0.000000   0.000000   0.000000
    16  H    0.000000   0.000000   0.000000   0.000000  -0.000003   0.000169
    17  H    0.000000   0.000000   0.000000   0.000000   0.000009  -0.000014
    18  H    0.000000   0.000000   0.000000   0.000000   0.000000   0.000000
    19  H    0.000000   0.000000   0.000000   0.000000   0.000002  -0.000001
    20  H   -0.000001   0.000000   0.000000   0.000000   0.000002  -0.000001
    21  H    0.000000   0.000000   0.000000   0.000000   0.000000   0.000000
    22  H    0.000006   0.000000   0.000000   0.000000   0.000000   0.000003
    23  H    0.000000   0.000000   0.000000   0.000000   0.000000   0.000026
    24  H   -0.038821   0.000689  -0.004493  -0.000030   0.000337  -0.000120
    25  H    0.540630  -0.002091   0.002925   0.000772  -0.000221   0.000130
    26  H   -0.002091   0.502746  -0.023950  -0.005111  -0.000150  -0.000057
    27  H    0.002925  -0.023950   0.516468   0.005077   0.002660  -0.000035
    28  H    0.000772  -0.005111   0.005077   0.625053   0.005183  -0.004102
    29  H   -0.000221  -0.000150   0.002660   0.005183   0.552201  -0.035971
    30  H    0.000130  -0.000057  -0.000035  -0.004102  -0.035971   0.512232
 Mulliken charges:
              1
     1  C    0.123402
     2  C   -0.514980
     3  C   -0.547837
     4  C   -0.548175
     5  O   -0.541452
     6  C    0.949045
     7  O   -0.538152
     8  N   -0.683280
     9  C   -0.170628
    10  C   -0.410033
    11  C    0.008309
    12  C   -0.172490
    13  O   -0.545691
    14  H    0.336939
    15  H    0.185032
    16  H    0.193872
    17  H    0.197333
    18  H    0.180998
    19  H    0.189073
    20  H    0.229520
    21  H    0.181714
    22  H    0.229251
    23  H    0.186440
    24  H    0.223998
    25  H    0.212084
    26  H    0.207266
    27  H    0.224516
    28  H    0.186561
    29  H    0.214843
    30  H    0.212523
 Sum of Mulliken charges =   0.00000
 Mulliken charges with hydrogens summed into heavy atoms:
              1
     1  C    0.123402
     2  C    0.061257
     3  C    0.051754
     4  C    0.049230
     5  O   -0.541452
     6  C    0.949045
     7  O   -0.538152
     8  N   -0.683280
     9  C    0.265453
    10  C    0.021748
    11  C    0.194870
    12  C    0.254877
    13  O   -0.208753
 Sum of Mulliken charges with hydrogens summed into heavy atoms =   0.00000
 APT charges:
              1
     1  C    0.650407
     2  C   -0.027566
     3  C   -0.107664
     4  C   -0.107858
     5  O   -0.962131
     6  C    1.435053
     7  O   -0.789032
     8  N   -0.866435
     9  C    0.363394
    10  C    0.004393
    11  C    0.491882
    12  C    0.229899
    13  O   -0.514946
    14  H    0.212015
    15  H   -0.001607
    16  H    0.006564
    17  H    0.008698
    18  H   -0.001594
    19  H    0.001709
    20  H    0.081235
    21  H   -0.000833
    22  H    0.080514
    23  H   -0.000416
    24  H   -0.018664
    25  H   -0.051515
    26  H    0.000457
    27  H    0.013360
    28  H   -0.088331
    29  H   -0.041373
    30  H    0.000383
 Sum of APT charges =   0.00000
 APT charges with hydrogens summed into heavy atoms:
              1
     1  C    0.650407
     2  C   -0.013910
     3  C   -0.026314
     4  C   -0.028593
     5  O   -0.962131
     6  C    1.435053
     7  O   -0.789032
     8  N   -0.866435
     9  C    0.293215
    10  C    0.018210
    11  C    0.403551
    12  C    0.188908
    13  O   -0.302930
 Sum of APT charges with hydrogens summed into heavy atoms =   0.00000
 Electronic spatial extent (au):  <R**2>=           3247.4003
 Charge=              0.0000 electrons
 Dipole moment (field-independent basis, Debye):
    X=              0.6319    Y=              2.3700    Z=              1.1354  Tot=              2.7028
 Quadrupole moment (field-independent basis, Debye-Ang):
   XX=            -77.2232   YY=            -78.6128   ZZ=            -77.9489
   XY=             -2.7903   XZ=              4.7254   YZ=              2.6235
 Traceless Quadrupole moment (field-independent basis, Debye-Ang):
   XX=              0.7051   YY=             -0.6845   ZZ=             -0.0206
   XY=             -2.7903   XZ=              4.7254   YZ=              2.6235
 Octapole moment (field-independent basis, Debye-Ang**2):
  XXX=            -36.4044  YYY=             27.0060  ZZZ=             -1.0541  XYY=             31.0915
  XXY=              1.6041  XXZ=             18.1111  XZZ=              6.3574  YZZ=              0.7792
  YYZ=              3.9035  XYZ=              8.2809
 Hexadecapole moment (field-independent basis, Debye-Ang**3):
 XXXX=          -3316.4669 YYYY=           -680.5598 ZZZZ=           -283.6073 XXXY=              0.0154
 XXXZ=             70.9587 YYYX=             72.7419 YYYZ=             10.9430 ZZZX=             -1.7397
 ZZZY=             -1.0932 XXYY=           -592.6651 XXZZ=           -584.7251 YYZZ=           -159.1897
 XXYZ=             31.1121 YYXZ=             17.4744 ZZXY=              8.2964
 N-N= 8.709195540349D+02 E-N=-3.211440215059D+03  KE= 6.248495897839D+02
  Exact polarizability: 128.470   0.400 100.834  -0.638   0.136  81.920
 Approx polarizability: 151.814   8.377 149.876  -3.257  -1.494 113.285
 Calculating spin-rotation constants.
 Leave Link  601 at Wed Oct 19 22:54:22 2011, MaxMem=  128000000 cpu:      31.9
 (Enter /home/foresman/gdv/l701.exe)
 Compute integral second derivatives.
 ... and contract with generalized density number  0.
 Leave Link  701 at Wed Oct 19 22:54:22 2011, MaxMem=  128000000 cpu:       1.3
 (Enter /home/foresman/gdv/l702.exe)
 L702 exits ... SP integral derivatives will be done elsewhere.
 Leave Link  702 at Wed Oct 19 22:54:22 2011, MaxMem=  128000000 cpu:       0.3
 (Enter /home/foresman/gdv/l703.exe)
 Compute integral second derivatives, UseDBF=F ICtDFT=           0.
 Integral derivatives from FoFJK, PRISM(SPDF).
 Calling FoFJK, ICntrl=    100127 FMM=F ISym2X=0 I1Cent= 0 IOpClX= 0 NMat=1 NMatS=1 NMatT=0.
 FoFJK:  IHMeth= 1 ICntrl=  100127 DoSepK=F KAlg= 0 I1Cent=   0 FoldK=F
 IRaf=       0 NMat=   1 IRICut=       1 DoRegI=T DoRafI=F ISym2E= 0.
 FoFCou: FMM=F IPFlag=           0 FMFlag=      100000 FMFlg1=         800
         NFxFlg=           0 DoJE=F BraDBF=F KetDBF=F FulRan=T
         wScrn=  0.000000 ICntrl=  100127 IOpCl=  0 I1Cent=           0 NGrid=           0
         NMat0=    1 NMatS0=      1 NMatT0=    0 NMatD0=    1 NMtDS0=    0 NMtDT0=    0
 Symmetry not used in FoFCou.
 Leave Link  703 at Wed Oct 19 22:54:56 2011, MaxMem=  128000000 cpu:     268.4
 (Enter /home/foresman/gdv/l716.exe)
 Dipole        = 2.48595440D-01 9.32416067D-01 4.46683141D-01
 Polarizability= 1.28470005D+02 4.00049456D-01 1.00834337D+02
                -6.37911096D-01 1.35623185D-01 8.19198636D+01
 AAT           =-9.61832924D-03-2.31016653D-02-1.08072565D-01
                 5.41087642D-03-4.81403371D-03-3.69961112D-01
                 1.17284397D-01 3.47320873D-01 6.45724962D-03
                 3.39758746D-03 9.08414177D-03 1.85573744D-01
                -1.51781565D-03 8.89788006D-03 1.70533372D-01
                -1.09492200D-01-8.37536204D-03-1.56533675D-02
                 5.69872734D-02 1.44387950D-01-1.45860901D-01
                -1.62868597D-01-1.20064887D-01 2.30733505D-01
                 2.76664290D-02-1.99619963D-01 7.79582935D-02
                -5.79011526D-02-1.60666569D-01-1.35506335D-01
                 1.68470706D-01 1.25628101D-01 2.04264212D-01
                 1.45333024D-02-2.10915863D-01-7.82271559D-02
                 6.10502850D-03 4.50082720D-02 2.34779835D-01
                -4.10706494D-02-3.77267590D-02 2.78237635D-01
                -5.75082681D-01-3.47086061D-01 1.87875087D-02
                -1.27623003D-02-9.81094691D-03 1.00654017D+00
                 1.73401173D-02 3.11928968D-02 1.64621682D-01
                -2.66088280D-01 9.22056029D-02 3.67174111D-03
                -4.78531999D-03-2.69990038D-02-1.19726765D+00
                 2.87889983D-02-3.16660716D-02-4.77091406D-02
                 1.07367667D+00-3.90382488D-01 3.23979912D-02
                 1.36996620D-02-5.22703789D-03-5.23216105D-01
                 9.10222617D-03-5.00653400D-02-3.95239186D-01
                 6.46389567D-02 4.19432574D-01 3.93724333D-02
                -2.20627423D-02-8.75442357D-02 1.15128122D-01
                 6.18489847D-02 3.25988942D-02 2.05179725D-01
                -9.70364712D-03-2.17701677D-01-8.61479542D-02
                -3.09134754D-02 5.30936567D-03-2.66205465D-02
                -4.39115530D-02 1.11702971D-01-2.79508910D-01
                 8.69738477D-02 4.31058537D-02-4.92865273D-02
                 2.54281773D-02-2.94208538D-02 6.39169548D-02
                 3.69697666D-02 1.72699619D-01 8.93533654D-01
                 8.70647106D-02-5.31659744D-01-1.25098973D-01
                -3.40233782D-02 9.99304124D-02 2.66362499D-02
                -5.12740459D-02 2.71540839D-02 2.84671660D-01
                -8.71575874D-02-2.35136845D-01-2.19767620D-03
                -4.43306790D-02 2.49267282D-01 2.17515410D-01
                 1.34573803D-01-3.90275190D-01-9.20086208D-01
                -4.54550498D-01 8.99597780D-01 5.07942306D-01
                 6.67192992D-02-9.04523138D-02-2.67757907D-01
                -2.48559990D-01 2.36632986D-01 7.93010230D-03
                 2.77774174D-01-4.15620701D-01-3.78771872D-01
                 5.35089357D-03 1.32673648D-02 1.22067304D-01
                -1.04940112D-03-3.18129639D-04-2.50260904D-01
                 7.97594299D-02 2.65798387D-01-3.51522489D-03
                -7.81940683D-02 2.72616993D-02-3.65068821D-02
                -2.00490332D-01-9.54919387D-02 1.03791950D-01
                -3.69811692D-02-1.52796275D-01 2.22145126D-01
                 6.96534999D-02-4.41653333D-02-4.91749066D-02
                 2.01004846D-01 8.81833993D-02 6.51083039D-02
                -5.71873574D-02-1.73256753D-01-2.04434991D-01
                 2.48943316D-03 1.26006169D-01-6.75874772D-02
                 3.87661587D-02-1.47926973D-02-2.66334118D-01
                -5.47482064D-03 2.28010406D-01 1.36639826D-02
                -5.37055720D-02-4.71015497D-02-1.01898806D-02
                 1.05130829D-01 1.75532909D-01 1.49487102D-02
                 1.65708809D-01-2.46220107D-01-7.22456826D-02
                -5.59203166D-02-2.65097462D-02 2.64500782D-01
                -6.56470290D-02-4.19784054D-02 1.47546623D-01
                -2.06536956D-01 5.96026284D-02 1.22526733D-01
                -4.52955498D-03-1.15393986D-01-5.74876933D-02
                -4.63009493D-02 9.82577487D-03-2.67391632D-01
                -2.33396536D-03 2.31902145D-01-6.16460115D-03
                 5.70541323D-02 4.19020655D-02 2.53171008D-01
                 5.21752009D-02 5.65348520D-02 1.30206150D-01
                -2.17675296D-01 4.60776334D-02-1.41181480D-01
                 5.85703460D-02 2.89580344D-02-1.17070336D-02
                -8.63249590D-02-1.94004656D-01 4.30391782D-02
                 1.73433587D-01-2.29701103D-01 8.53990580D-02
                 5.87952341D-02-1.04231670D-01 8.24924926D-02
                 1.80963419D-01 3.18688173D-02-4.40287374D-02
                 2.07154569D-02 6.06280032D-02-1.46776691D-01
                -3.44772269D-02 1.26432489D-01 4.26397724D-02
                -1.93613742D-01-1.30437982D-02 3.04074110D-02
                 1.24731826D-01 1.19288898D-01 1.06776155D-01
                 3.49999470D-02 1.85263537D-01 1.45565222D-01
                -9.98140068D-02-6.40668370D-02 1.51290192D-01
                -4.81903961D-02-1.33615613D-01 3.24711133D-02
                 1.30515065D-03-1.98547365D-01-2.37160645D-02
                 1.90516569D-01-7.25692199D-02 1.20187509D-01
[...]
 00038,-0.00000734,0.00000020,-0.00000478,-0.00001509,-0.00001511,0.000
 03055,0.00000434,0.00000388,-0.00000167,0.00001623,-0.00001040,-0.0000
 0484,-0.00002067,-0.00000262,-0.00000384,-0.00002013,-0.00004137,-0.00
 004168,-0.00001366,0.00000698,0.00000919,0.04032043,0.06367430,0.00005
 981,-0.00010220,-0.00007212,0.00000352,0.00000700,0.00000109,0.0000067
 4,0.00004343,-0.00000462,0.00001557,0.00000147,-0.00000077,-0.00044116
 ,-0.00011108,-0.00042117,0.00130990,0.00051827,0.00107725,-0.00129314,
 0.00038468,-0.00062346,-0.00921655,-0.00276055,0.01068093,0.12946090,0
 .03657326,-0.17746470,-0.00380851,-0.00173164,0.00178245,-0.00135990,-
 0.00044100,0.00021021,-0.00118161,0.00033480,-0.00039651,-0.00010183,-
 0.00017094,0.00007379,-0.00005429,-0.00002910,-0.00002204,-0.00000243,
 0.00000367,0.00000114,-0.00000249,-0.00000316,0.00000037,0.00000089,0.
 00000006,0.00000227,-0.00000126,0.00000618,-0.00001238,-0.00001104,-0.
 00000085,-0.00000345,-0.00000835,-0.00000854,0.00001814,-0.00000063,-0
 .00000144,0.00000283,0.00000717,0.00001158,-0.00001133,-0.00001462,0.0
 0000194,0.00000212,-0.13533894,-0.03977913,0.18690672,0.00015489,-0.00
 063439,0.00035711,0.00000935,0.00009580,-0.00001309,-0.00000300,0.0000
 9740,0.00000393,-0.00000996,0.00020683,-0.00004209,-0.00131065,0.00132
 967,0.00002336,-0.00120109,-0.00628332,-0.00053069,0.00183433,0.001680
 86,0.00025865,-0.02133986,0.00343095,-0.02743418,-0.07220746,-0.023939
 29,-0.06655504,-0.00211162,-0.00184331,-0.00724038,0.00026528,0.000836
 15,-0.00097092,0.00007854,0.00146025,-0.00209167,0.00001393,-0.0003212
 0,0.00039874,-0.00003195,0.00007029,-0.00008391,-0.00003730,0.00002791
 ,-0.00001289,0.00000971,-0.00001537,0.00000137,0.00001804,-0.00002024,
 0.00001449,-0.00000476,0.00004082,-0.00003704,-0.00001601,-0.00002054,
 0.00001139,-0.00000743,-0.00008365,0.00007310,-0.00000977,0.00005832,0
 .00006033,0.00000865,-0.00007983,-0.00007287,-0.00004066,-0.00001226,0
 .00000301,0.00894935,0.00595905,0.02283673,0.08727264,-0.00001324,0.00
 032989,-0.00029910,-0.00000308,-0.00006123,0.00000313,0.00001669,0.000
 00150,-0.00002187,0.00004222,-0.00013476,0.00002245,0.00081339,-0.0010
 6867,-0.00041120,0.00273859,0.00500745,0.00148881,-0.00225733,0.000031
 03,-0.00120527,0.01394405,0.00034761,0.01964267,-0.02426416,-0.0658029
 0,-0.06176584,-0.00856562,-0.01040390,-0.03138939,0.00087479,-0.000012
 11,-0.00092616,-0.00072649,-0.00173174,0.00109709,-0.00039199,-0.00010
 136,0.00033684,-0.00025591,-0.00004888,0.00019396,0.00002187,-0.000012
 61,0.00001042,-0.00000971,0.00000561,0.00000091,-0.00001263,0.00000990
 ,-0.00000633,-0.00001384,-0.00001439,0.00000598,-0.00000554,0.00000908
 ,-0.00001659,-0.00002312,-0.00001001,0.00002361,-0.00000558,-0.0000360
 7,-0.00004301,0.00000822,0.00000023,0.00002706,0.00001507,0.00000742,0
 .00000109,0.00128398,0.00289594,0.00709217,0.01915571,0.07357654,0.000
 06248,-0.00029523,0.00003946,-0.00000050,0.00004794,0.00000186,-0.0000
 2012,0.00005048,0.00000590,-0.00001978,0.00007194,-0.00000937,-0.00018
 084,0.00075873,-0.00029312,-0.00216919,-0.00361507,-0.00010638,0.00208
 667,0.00042124,0.00064758,-0.00832834,0.00511665,0.00107963,-0.0671909
 6,-0.06017141,-0.26733727,0.00160298,0.00026334,0.00131932,-0.00033240
 ,0.00030186,-0.00001040,0.00100383,0.00041635,-0.00138155,0.00005207,-
 0.00011009,0.00016927,-0.00000202,0.00003530,-0.00009137,-0.00001812,0
 .00001426,-0.00000471,0.00000139,-0.00001145,0.00000095,0.00001849,-0.
 00000801,0.00001463,-0.00000248,0.00002850,-0.00001689,0.00001121,-0.0
 0001248,0.00002433,-0.00000194,-0.00005631,0.00001129,0.00000539,0.000
 01928,0.00002857,0.00000836,-0.00002062,-0.00003964,-0.00002260,-0.000
 00477,0.00000491,-0.00655374,-0.00746331,-0.02309482,0.08035732,0.0649
 0192,0.28666924,0.00011846,-0.00006307,0.00002255,-0.00000449,-0.00001
 838,0.00000610,-0.00000117,0.00003223,-0.00000514,-0.00000071,0.000025
 92,0.00000125,0.00010706,0.00002458,-0.00000835,0.00047765,-0.00027311
 ,-0.00001851,0.00021244,0.00017421,0.00001192,-0.00114317,-0.00290740,
 0.00020665,0.00670412,-0.00829272,0.00866373,-0.11796115,0.08182354,-0
 .08506765,-0.01719291,0.02203377,-0.02225439,-0.00574818,-0.00006340,0
 .00256903,0.00178053,-0.00094120,0.00115049,0.00005095,-0.00015658,0.0
 0009596,0.00000921,0.00001245,-0.00000195,0.00001030,-0.00001184,-0.00
 001046,0.00000392,-0.00000744,0.00001288,0.00000071,0.00000901,-0.0000
 0812,-0.00000268,-0.00000448,0.00000525,-0.00000183,-0.00000550,0.0000
 0595,-0.00000093,0.00001030,0.00000325,0.00000071,-0.00000567,-0.00000
 537,-0.00000141,-0.00000717,-0.00000631,-0.00040257,-0.00002279,0.0002
 3970,0.00079941,0.00079043,-0.00001886,0.12909698,-0.00001384,0.000380
 66,-0.00001717,-0.00000355,-0.00008736,0.00000920,0.00000972,-0.000080
 75,0.00000239,0.00000561,-0.00006828,0.00001547,0.00050952,-0.00101790
 ,0.00022927,0.00119921,0.00107832,-0.00018405,-0.00024911,-0.00031076,
 -0.00001829,-0.00113088,-0.00581282,0.00052181,0.01693626,-0.01502108,
 0.01789607,0.08213592,-0.14589411,0.09975570,-0.00157477,-0.00034933,-
 0.00070964,-0.00086964,-0.00081689,-0.00034838,0.00045769,0.00055037,0
 .00012639,0.00014949,-0.00005232,0.00009265,0.00003186,-0.00001426,0.0
 0000734,-0.00000587,0.00001024,-0.00000397,-0.00000855,0.00000908,-0.0
 0000228,-0.00000240,-0.00002519,0.00002440,0.00000322,0.00000994,-0.00
 000446,0.00000797,0.00004077,-0.00002937,0.00000466,-0.00002790,-0.000
 01551,-0.00000341,0.00004586,0.00002484,0.00000755,0.00001013,0.,-0.00
 054628,-0.00083230,0.00015767,0.00029274,0.00130445,-0.00077563,-0.090
 97294,0.15887945,0.00002978,-0.00009001,-0.00000866,-0.00000323,-0.000
 00098,-0.00000163,0.00000092,0.00001157,-0.00000977,0.00000152,0.00000
 192,0.00000721,-0.00005674,-0.00009000,0.00000516,0.00032989,-0.000388
 48,0.00020884,0.00000020,0.00011373,-0.00003150,0.00106346,-0.00136843
 ,0.00092900,0.00123418,-0.00264079,-0.00023013,-0.08760142,0.10228770,
 -0.15543814,0.00719057,-0.00688969,0.00527329,0.00223097,-0.00094344,0
 .00017889,-0.00073687,-0.00045242,0.00016473,-0.00010166,-0.00006800,-
 0.00001688,0.00000071,0.00000254,0.00000044,0.00000162,-0.00000124,0.0
 0000154,0.00000324,-0.00000159,0.00000057,-0.00000421,0.00000625,0.000
 00044,0.00000337,-0.00000410,0.00000503,-0.00000555,-0.00001570,0.0000
 0856,-0.00000370,0.00000353,-0.00000393,-0.00000058,-0.00001614,-0.000
 00535,0.00000256,-0.00000257,-0.00000034,-0.00002922,0.00031404,-0.000
 02419,0.00032599,0.00004661,0.00088713,0.09308728,-0.10914961,0.165337
 89,-0.00001035,0.00007484,-0.00001165,-0.00000011,-0.00000861,0.000006
 23,-0.00000072,-0.00001528,0.00000734,-0.00000425,-0.00001206,0.000003
 85,0.00008093,-0.00011311,0.00003305,0.00000806,0.00018125,-0.00014745
 ,-0.00001250,-0.00003181,0.00012088,-0.00004243,0.00029481,-0.00012252
 ,-0.00167967,-0.00722989,-0.01422074,-0.04910449,0.00753674,0.00862678
 ,-0.00733511,0.01301110,0.03784698,0.00159543,-0.00117598,0.00082061,0
 .00374563,0.00129210,-0.00122442,0.00096801,0.00009195,-0.00064750,0.0
 0000283,-0.00000548,0.00000009,-0.00000300,0.00000337,0.00000245,-0.00
 000163,0.00000396,-0.00000522,0.00000089,-0.00000549,0.00000364,0.0000
 0424,0.00000330,-0.00000233,0.00000307,0.00000812,-0.00001181,0.000002
 42,-0.00000597,-0.00000153,-0.00000106,0.00000896,-0.00000027,-0.00000
 070,0.00000214,0.00000171,0.00030508,0.00052764,-0.00038429,0.00007105
 ,-0.00300565,0.00029846,0.00132820,-0.00683054,-0.01670823,0.05685303,
 0.00002843,0.00002342,-0.00004671,-0.00000344,-0.00001629,0.00000171,-
 0.00000609,-0.00000509,-0.00000396,-0.00000372,-0.00000692,0.00000768,
 0.00010342,-0.00009290,0.00007421,-0.00022032,-0.00036469,0.00003056,0
 .00030244,0.00004993,0.00016947,-0.00069023,0.00063473,0.00083461,0.00
 005845,-0.01348614,-0.03150323,0.00849170,-0.08269559,-0.08421199,-0.0
 0039169,-0.00074598,-0.00143828,-0.00019070,-0.00013712,-0.00097559,-0
 .00038123,0.00008549,0.00099049,0.00003782,-0.00024734,-0.00003700,0.0
 0000613,0.00000167,0.00000151,-0.00000310,-0.00000156,0.00000028,0.000
 00720,-0.00000021,0.00000665,-0.00000060,0.00000504,0.00000554,0.00001
 241,-0.00000364,0.00001537,0.00000030,-0.00000134,-0.00001518,0.000003
 05,-0.00000421,0.00000163,0.00000378,0.00000916,-0.00000547,-0.0000082
 4,0.00000244,0.00000456,0.00009123,0.00184493,0.00016738,-0.00067576,-
 0.00470915,0.00034738,-0.00190328,0.00811940,0.02031829,-0.00489782,0.
 09165011,-0.00001842,0.00007226,-0.00001849,0.00000048,-0.00001154,0.0
 0000037,0.00000031,-0.00001620,0.00000281,0.00000341,-0.00001398,0.000
 00263,0.00010329,-0.00014265,0.00006339,0.00011603,0.00015293,-0.00018
 531,-0.00003118,-0.00005459,0.00002234,0.00049825,-0.00042443,0.000525
 40,-0.00067289,0.00160015,0.00121230,0.00967472,-0.08487958,-0.2818782
 7,0.00263166,-0.00365502,-0.01333273,-0.00044213,0.00004399,0.00020234
 ,-0.00098951,0.00002432,0.00087347,-0.00067231,0.00028457,0.00060604,0
 .00000444,-0.00000391,0.00000138,-0.00000432,0.00000195,-0.00000037,-0
 .00000081,0.00000288,0.00000155,-0.00000026,-0.00000525,0.00000472,0.0
 0000204,0.00000277,0.00000228,0.00000137,0.00000827,-0.00000874,0.0000
 0152,-0.00000804,-0.00000055,0.00000212,0.00001130,0.00000134,-0.00000
 489,0.00000402,0.00000279,-0.00027753,-0.00024074,0.00123298,0.0002401
 9,0.00057639,0.00131072,0.00190346,-0.00753388,-0.01884672,-0.01422756
 ,0.09475821,0.30649024,0.00002649,-0.00004078,0.00001643,0.00000331,0.
 00000080,-0.00001491,-0.00000102,0.00000718,-0.00000475,0.00000597,0.0
 0001775,-0.00000784,-0.00001334,-0.00002552,0.00007575,0.00023211,-0.0
 0028492,-0.00012157,0.00017763,0.00019925,0.00005562,-0.00023352,0.000
 33394,-0.00033292,0.00067173,0.00095760,0.00012746,-0.00613560,0.00520
 359,0.03502978,-0.05554736,0.00267970,0.02859913,0.00198785,0.00240726
 ,-0.01464738,-0.00022912,-0.00988953,-0.01973730,0.00172509,0.00074334
 ,-0.00110227,-0.00000056,0.00000458,0.00000336,-0.00000095,-0.00000188
 ,-0.00000084,0.00000426,-0.00000570,0.00001037,0.00000028,0.00000432,-
 0.00000080,-0.00000309,-0.00000296,0.00000633,-0.00000049,-0.00000405,
 0.00000705,-0.00000209,0.00000343,0.00000509,0.00000201,-0.00000957,-0
 .00000300,-0.00000296,0.00000082,0.00000287,-0.00005725,0.00003701,-0.
 00031637,-0.00010165,-0.00051625,-0.00028433,0.00182953,0.00014176,-0.
 00067934,-0.00626129,-0.00048767,0.00194722,0.06189342,-0.00005398,0.0
 0010079,-0.00000515,0.00000080,-0.00000767,0.00001305,0.00000800,-0.00
 002201,0.00000630,-0.00000069,-0.00002929,0.00001214,-0.00008441,-0.00
 013190,-0.00008801,0.00025411,0.00000070,-0.00006044,-0.00015770,-0.00
 006082,0.00002960,0.00112915,0.00125862,-0.00157042,0.00044768,0.00028
 131,0.00002731,0.00234574,0.00117502,-0.00383690,0.00029924,-0.0519876
 1,-0.01724815,0.00039218,0.00124489,0.03105464,-0.00376366,-0.01508612
 ,-0.03518240,0.00133307,0.00141860,0.00071448,0.00000163,-0.00001214,-
 0.00000293,-0.00000202,0.00000703,0.00000183,-0.00001348,0.00001054,-0
 .00001675,-0.00000168,-0.00001290,0.00000310,-0.00000106,0.00000845,-0
 .00001625,0.00000245,0.00000927,-0.00000419,-0.00000095,-0.00000728,-0
 .00001161,-0.00000530,0.00000112,0.00000524,0.00000931,-0.00000065,-0.
 00000400,-0.00005075,0.00017990,0.00001960,-0.00019018,0.00014266,0.00
 000228,-0.00043812,-0.00005559,-0.00048826,-0.00001500,0.00012427,-0.0
 0029825,-0.00205209,0.06476357,0.00006935,-0.00019170,-0.00002205,0.00
 000434,0.00002472,-0.00002048,-0.00000641,0.00004269,-0.00000448,0.000
 01615,0.00004820,-0.00001333,-0.00010013,0.00029491,0.00010115,0.00030
 632,-0.00045430,-0.00034373,0.00021328,0.00045142,0.00011367,-0.000031
 50,0.00123583,0.00081393,0.00016282,0.00014360,-0.00082482,0.00052228,
 -0.00067189,-0.00714316,0.02706995,-0.01793067,-0.29181110,0.00202437,
 -0.00153095,-0.01652294,-0.00288180,-0.00882418,-0.00654316,-0.0006770
 1,-0.00003344,0.00079811,-0.00000788,0.00001535,0.00000127,-0.00000373
 ,-0.00001105,-0.00000176,0.00001494,-0.00001076,0.00002444,-0.00000132
 ,0.00002029,-0.00000898,0.00000256,-0.00000876,0.00002340,-0.00000635,
 -0.00002385,0.00001164,-0.00000424,0.00001017,0.00001769,0.00001152,-0
 .00002403,-0.00002588,-0.00002615,0.00000157,0.00001109,0.00017090,0.0
 0021323,0.00022890,0.00044721,0.00037640,0.00021134,0.00023799,-0.0003
 0553,0.00105416,0.00094042,0.00008982,0.00099208,-0.02727629,0.0248879
 9,0.31794548,-0.00021103,0.00069859,-0.00009894,-0.00002677,-0.0000961
 1,0.00004990,-0.00001400,-0.00017951,0.00000450,-0.00003339,-0.0001308
 8,0.00004753,0.00191901,-0.00124815,0.00024992,-0.00145449,0.00589067,
 -0.00276377,-0.00136709,-0.00172092,0.00102148,-0.01603448,-0.01696396
 ,-0.02398357,0.00055123,-0.00194561,-0.00136614,0.00097673,-0.00067679
 ,-0.00040887,-0.00217047,-0.00113463,-0.01011269,-0.06095022,-0.005384
 95,-0.04702535,-0.00001827,-0.00147013,0.00147989,0.00010818,-0.000025
 20,0.00040421,0.00004089,-0.00001867,-0.00000289,0.00001608,-0.0000007
 0,-0.00000918,0.00000138,0.00001987,-0.00001469,0.00001817,-0.00004153
 ,0.00006130,0.00003219,0.00001120,0.00001607,0.00002921,0.00013776,-0.
 00013106,0.00002623,-0.00004488,-0.00003206,-0.00000196,0.00012560,0.0
 0005776,0.00001915,0.00000452,-0.00001610,-0.00007709,-0.00013253,-0.0
 0005388,-0.00096570,0.00040948,-0.00024782,0.00001265,0.00016549,0.000
 29632,-0.00047206,0.00064707,0.00010978,-0.00027142,0.00079405,-0.0005
 8376,0.07320721,-0.00000641,0.00026929,-0.00006767,0.00000217,-0.00008
 216,-0.00007849,-0.00004094,-0.00011276,-0.00001311,-0.00000691,-0.000
 00517,-0.00001881,0.00132979,0.00053561,0.00091774,-0.00179291,0.00462
 930,-0.00311325,-0.00122065,-0.00169096,0.00107812,-0.01397441,-0.0107
 3394,-0.01700290,0.00110580,-0.00182318,-0.00102756,-0.00140973,0.0005
 2121,-0.00013429,0.00681208,0.00334898,0.03131437,-0.00627187,-0.05982
 179,-0.05460244,-0.00039895,0.00438725,-0.00220197,-0.00015104,-0.0002
 9442,0.00021924,0.00003162,0.00002144,0.00003491,-0.00002127,0.0000007
 4,-0.00000909,0.00003829,-0.00002519,0.00007636,0.00002693,-0.00000141
 ,0.00004195,0.00001764,-0.00000921,0.00007004,0.00001681,0.00012556,-0
 .00011060,0.00002107,-0.00002186,0.00002134,0.00000928,0.00010494,0.00
 004241,-0.00001564,0.00001894,0.00001867,-0.00011369,-0.00006776,-0.00
 005497,-0.00060308,0.00047518,-0.00025310,-0.00003757,-0.00006003,-0.0
 0019941,0.00058570,-0.00005424,-0.00027476,0.00160875,-0.00463946,0.00
 223722,0.01670612,0.06719282,-0.00008593,0.00023622,-0.00017471,0.0000
 0162,-0.00003952,-0.00005364,0.00000179,-0.00004089,-0.00000762,0.0000
 3016,-0.00006713,0.00000415,0.00077386,-0.00040607,0.00062482,-0.00059
 708,0.00157844,-0.00013770,0.00012157,-0.00035098,-0.00044115,-0.00335
 115,-0.00157023,0.01015884,0.00028827,-0.00009202,-0.00096926,0.000480
 14,-0.00051449,0.00043799,-0.00359480,-0.00315160,-0.02115649,-0.04718
 408,-0.05495268,-0.28120390,0.00171253,-0.00221134,0.00362632,-0.00008
 506,0.00057373,-0.00071543,0.00001981,0.00000954,0.00002095,-0.0000197
 5,0.00000222,-0.00001264,0.00001586,-0.00001765,0.00005978,0.00000040,
 -0.00000462,0.00001906,0.00000480,-0.00000307,0.00003495,0.00001117,0.
 00003709,-0.00003978,0.00000569,-0.00003282,-0.00000297,0.00001138,0.0
 0006661,0.00002749,-0.00001671,0.00002224,0.00001688,-0.00019273,0.000
 07444,-0.00003759,-0.00017270,0.00013304,0.00001467,-0.00010567,0.0001
 5055,0.00021890,-0.00068147,0.00017560,0.00049619,-0.00151450,0.002873
 63,-0.00018142,0.05708821,0.05938642,0.30381635,0.00047793,-0.00003122
 ,-0.00000900,0.00001625,-0.00006792,0.00003306,-0.00007100,0.00013954,
 -0.00000649,-0.00006821,0.00001635,-0.00001382,0.00258687,0.00066776,-
 0.00071906,-0.00326371,0.00485525,-0.00043576,-0.00001530,-0.00124395,
 -0.00024187,-0.02776152,0.00494559,0.00712083,-0.00126222,-0.00149091,
 0.00307687,-0.00068463,-0.00049614,-0.00067466,-0.00322355,0.00071689,
 0.00227751,-0.20225938,0.09415680,0.09085042,0.00044088,0.00124704,-0.
 00013965,-0.00006554,0.00028431,0.00011766,0.00000712,0.00000792,-0.00
 000568,0.00003524,-0.00000867,-0.00000650,0.00000340,-0.00000258,-0.00
 001073,0.00004820,0.00000935,-0.00003585,-0.00000981,-0.00000395,-0.00
 000416,0.00001730,0.00004778,-0.00002354,0.00003584,0.00002364,-0.0000
 0490,-0.00001128,0.00008281,0.00005079,0.00003983,-0.00002666,-0.00003
 996,-0.00114365,0.00064346,-0.00034965,-0.00008631,-0.00004439,-0.0001
 1463,-0.00008163,0.00015313,0.00012819,-0.00003949,0.00007047,0.000101
 54,0.00030204,-0.00018633,-0.00060784,0.00711013,-0.00224695,-0.002965
 66,0.22892619,0.00022882,-0.00068416,-0.00033582,-0.00004509,-0.000006
 00,0.00009074,-0.00007543,0.00026342,0.00001316,-0.00004158,-0.0000637
 7,0.00000562,0.00111471,-0.00247592,0.00069186,-0.00207245,0.00437957,
 0.00033084,-0.00018385,-0.00106448,-0.00074237,-0.02265630,0.00591779,
 0.00906751,-0.00176025,-0.00237432,0.00131227,0.00099415,-0.00350890,0
 .00301831,0.02190611,-0.00892980,-0.01440671,0.10147628,-0.10535596,-0
 .06010278,-0.00116626,-0.00068776,0.00084795,-0.00042568,-0.00047228,0
 .00000238,0.00000220,0.00003242,-0.00002684,0.00007712,-0.00004858,-0.
 00003815,0.00001025,-0.00001644,0.00000462,0.00004733,0.00004454,-0.00
 007715,-0.00000907,-0.00001416,0.00000959,-0.00000782,0.00001782,-0.00
 000860,0.00003367,0.00001298,-0.00001140,0.00000987,0.00004600,0.00002
 148,0.00001065,-0.00002026,-0.00003409,-0.00072619,0.00054889,-0.00012
 853,-0.00002032,0.00000330,0.00000005,0.00119623,0.00008822,-0.0002953
 1,-0.00027331,0.00002180,0.00001881,-0.00103014,0.00132671,-0.00007229
 ,0.00560475,-0.00218770,-0.00186466,-0.10221839,0.11520705,-0.00025467
 ,0.00013322,0.00009566,0.00001473,0.00001804,-0.00000961,0.00000152,-0
 .00012441,-0.00002625,-0.00004526,-0.00004732,0.00004576,-0.00137750,0
 .00007504,-0.00064491,0.00159952,-0.00211992,0.00129117,-0.00017369,0.
 00049385,-0.00019756,-0.00171525,0.00421655,0.00320854,-0.00124335,0.0
 0063279,-0.00085664,-0.00186594,0.00218943,-0.00120827,-0.01583724,0.0
 0757947,0.00690689,0.09299725,-0.05812923,-0.10739251,0.00016508,-0.00
 064047,0.00022348,0.00033096,-0.00019062,0.00018593,-0.00003254,-0.000
 06178,-0.00000068,-0.00003600,0.00006770,0.00009584,-0.00000435,0.0000
 4754,-0.00011185,-0.00002320,-0.00001737,0.00004214,0.00002533,0.00000
 059,-0.00001337,-0.00001718,-0.00003461,0.00001965,-0.00000614,-0.0000
 1101,-0.00002668,-0.00001532,-0.00003195,-0.00002088,0.00002397,0.0000
 0436,0.00000932,-0.00010151,-0.00007026,-0.00003205,-0.00015546,0.0001
 0421,-0.00005530,-0.00071265,0.00008402,0.00033546,-0.00031550,0.00023
 644,0.00022383,0.00015795,-0.00081747,0.00111893,0.02596391,-0.0162963
 7,-0.01444304,-0.09734746,0.06270951,0.11123700\\0.00000272,0.00000028
 ,-0.00000271,0.00000221,0.00000166,-0.00000220,0.00000246,-0.00000221,
 -0.00000325,0.00000373,0.00000134,-0.00000379,0.00000045,0.00000028,-0
 .00000050,0.00000096,-0.00000051,-0.00000067,0.00000091,-0.00000202,-0
 .00000184,-0.00000116,-0.00000066,0.00000096,-0.00000183,-0.00000177,0
 .00000155,-0.00000369,-0.00000100,0.00000351,-0.00000324,0.00000149,0.
 00000403,-0.00000215,0.00000046,0.00000262,-0.00000495,0.00000092,0.00
 000552,-0.00000484,0.00000276,0.00000605,0.00000357,0.00000171,-0.0000
 0333,0.00000231,0.00000330,-0.00000146,0.00000146,0.00000079,-0.000001
 28,0.00000363,-0.00000229,-0.00000467,0.00000150,-0.00000305,-0.000002
 59,0.00000239,-0.00000321,-0.00000362,0.00000488,0.00000140,-0.0000048
 5,0.00000362,0.00000034,-0.00000379,0.00000359,0.00000302,-0.00000296,
 -0.00000189,-0.00000334,0.00000102,-0.00000119,-0.00000074,0.00000111,
 -0.00000407,-0.00000095,0.00000417,-0.00000439,-0.00000249,0.00000404,
 -0.00000280,0.00000249,0.00000385,-0.00000280,-0.00000028,0.00000290,-
 0.00000138,0.00000229,0.00000215\\\@
 The archive entry for this job was punched.


 THE REAL VOYAGE OF DISCOVERY CONSISTS NOT IN SEEKING NEW LANDSCAPES 
 BUT IN HAVING NEW EYES.
                                                    -- MARCEL PROUST
 Job cpu time:  0 days  0 hours 16 minutes  9.9 seconds.
 File lengths (MBytes):  RWF=    113 Int=      0 D2E=      0 Chk=      3 Scr=      1
 Normal termination of Gaussian DV at Wed Oct 19 22:54:56 2011.
