 Entering Gaussian System, Link 0=gdv
 Input=cuc.gjf
 Output=cuc.log
 Initial command:
 /home/foresman/gdv/l1.exe /tmp/Gau-24724.inp -scrdir=/tmp/
 Default is to use a total of   8 processors:
                                8 via shared-memory
                                1 via Linda
 Entering Link 1 = /home/foresman/gdv/l1.exe PID=     24725.
  
 Copyright (c) 1988,1990,1992,1993,1995,1998,2003,2009,2011,
            Gaussian, Inc.  All Rights Reserved.
  
 This is the private, development version of
 the Gaussian(R) DV system of programs. It is based on
 the Gaussian(R) 09 system (copyright 2009, Gaussian, Inc.),
 the Gaussian(R) 03 system (copyright 2003, Gaussian, Inc.),
 the Gaussian(R) 98 system (copyright 1998, Gaussian, Inc.),
 the Gaussian(R) 94 system (copyright 1995, Gaussian, Inc.),
 the Gaussian 92(TM) system (copyright 1992, Gaussian, Inc.),
 the Gaussian 90(TM) system (copyright 1990, Gaussian, Inc.),
 the Gaussian 88(TM) system (copyright 1988, Gaussian, Inc.),
 the Gaussian 86(TM) system (copyright 1986, Carnegie Mellon
 University), and the Gaussian 82(TM) system (copyright 1983,
 Carnegie Mellon University). Gaussian is a federally registered
 trademark of Gaussian, Inc.
  
 This software contains proprietary and confidential information,
 including trade secrets, belonging to Gaussian, Inc.
  
 This software is provided under written license and may be
 used, copied, transmitted, or stored only in accord with that
 written license.
  
 The following legend is applicable only to US Government
 contracts under FAR:
  
                    RESTRICTED RIGHTS LEGEND
  
 Use, reproduction and disclosure by the US Government is
 subject to restrictions as set forth in subparagraphs (a)
 and (c) of the Commercial Computer Software - Restricted
 Rights clause in FAR 52.227-19.
  
 Gaussian, Inc.
 340 Quinnipiac St., Bldg. 40, Wallingford CT 06492
  
  
 ---------------------------------------------------------------
 Warning -- This program may not be used in any manner that
 competes with the business of Gaussian, Inc. or will provide
 assistance to any competitor of Gaussian, Inc.  The licensee
 of this program is prohibited from giving any competitor of
 Gaussian, Inc. access to this program.  By using this program,
 the user acknowledges that Gaussian, Inc. is engaged in the
 business of creating and licensing software in the field of
 computational chemistry and represents and warrants to the
 licensee that it is not a competitor of Gaussian, Inc. and that
 it will not use this program in any manner prohibited above.
 ---------------------------------------------------------------
  

 Cite this work as:
 Gaussian Development Version, Revision H.13,
 M. J. Frisch, G. W. Trucks, H. B. Schlegel, G. E. Scuseria, 
 M. A. Robb, J. R. Cheeseman, G. Scalmani, V. Barone, B. Mennucci, 
 G. A. Petersson, H. Nakatsuji, M. Caricato, X. Li, H. P. Hratchian, 
 A. F. Izmaylov, J. Bloino, G. Zheng, J. L. Sonnenberg, W. Liang, 
 M. Hada, M. Ehara, K. Toyota, R. Fukuda, J. Hasegawa, M. Ishida, 
 T. Nakajima, Y. Honda, O. Kitao, H. Nakai, T. Vreven, 
 J. A. Montgomery, Jr., J. E. Peralta, F. Ogliaro, M. Bearpark, 
 J. J. Heyd, E. Brothers, K. N. Kudin, V. N. Staroverov, T. Keith, 
 R. Kobayashi, J. Normand, K. Raghavachari, A. Rendell, J. C. Burant, 
 S. S. Iyengar, J. Tomasi, M. Cossi, N. Rega, J. M. Millam, M. Klene, 
 J. E. Knox, J. B. Cross, V. Bakken, C. Adamo, J. Jaramillo, 
 R. Gomperts, R. E. Stratmann, O. Yazyev, A. J. Austin, R. Cammi, 
 C. Pomelli, J. W. Ochterski, R. L. Martin, K. Morokuma, 
 V. G. Zakrzewski, G. A. Voth, P. Salvador, J. J. Dannenberg, 
 S. Dapprich, P. V. Parandekar, N. J. Mayhall, A. D. Daniels, 
 O. Farkas, J. B. Foresman, J. V. Ortiz, J. Cioslowski, 
 and D. J. Fox, Gaussian, Inc., Wallingford CT, 2010.
 
 ******************************************
 Gaussian DV:  EM64L-GDVRevH.13 30-Sep-2011
                19-Oct-2011 
 ******************************************
 %chk=cuc
 %nprocshared=8
 Will use up to    8 processors via shared memory.
 Default route:  maxdisk=400GB
 ------------------------------------
 #p B3LYP/3-21G freq=vcd Geom=Connect
 ------------------------------------
 1/10=4,30=1,38=1,57=2/1,3;
 2/12=2,17=6,18=5,40=1/2;
 3/5=5,11=2,16=1,25=1,30=1,36=2,71=2,74=-5,140=1/1,2,3;
 4//1;
 5/5=2,38=5,98=1/2;
 8/6=4,10=90,11=11/1;
 10/15=4,46=1/2;
 11/6=1,8=1,9=11,15=111,16=1/1,2,10;
 10/6=1,46=1/2;
 6/7=2,8=2,9=2,10=2,18=1,28=1/1;
 7/8=1,10=1,25=1/1,2,3,16;
 1/10=4,30=1/3;
 99//99;
 Leave Link    1 at Wed Oct 19 22:54:56 2011, MaxMem=          0 cpu:       0.4
 (Enter /home/foresman/gdv/l101.exe)
 ----------------
 18 -20.305 0.000
 ----------------
 Charge =  0 Multiplicity = 1
 Symbolic Z-Matrix:
 C                    -0.17077  -2.3126    0.29811 
 C                    -0.91563  -2.97786  -0.87001 
 C                     1.22491  -2.9163    0.49625 
 C                    -0.9924   -2.34715   1.59634 
 O                     0.14787  -0.88886  -0.05535 
 C                    -0.8951   -0.01226  -0.31632 
 O                    -2.10576  -0.28543  -0.27977 
 N                    -0.39547   1.21189  -0.62308 
 C                    -1.3018    2.35114  -0.9082 
 C                    -0.33804   3.55786  -0.86534 
 C                     1.01723   2.95978  -1.3253 
 C                     1.0346    1.57047  -0.65721 
 O                     2.18537   3.67741  -0.84877 
 H                     2.23442   4.54088  -1.33957 
 H                    -1.09349  -4.03327  -0.63877 
 H                    -1.86625  -2.46688  -1.02792 
 H                    -0.31051  -2.91167  -1.78039 
 H                     1.13925  -3.9733    0.76727 
 H                     1.803    -2.82616  -0.42823 
 H                     1.7507   -2.38052   1.29204 
 H                    -1.17307  -3.38665   1.88932 
 H                    -0.44018  -1.84379   2.39687 
 H                    -1.9423   -1.83637   1.43383 
 H                    -2.09602   2.40113  -0.15991 
 H                    -1.763     2.2361   -1.8963 
 H                    -0.67749   4.3887   -1.48969 
 H                    -0.20032   3.90303   0.1642 
 H                     1.01445   2.84237  -2.41868 
 H                     1.45629   1.68413   0.34778 
 H                     1.61252   0.82979  -1.21042 
 
 NAtoms=     30 NQM=        0 NQMF=       0 NMMI=     30 NMMIF=      0
                NMic=       0 NMicF=      0.
                    Isotopes and Nuclear Properties:
 (Nuclear quadrupole moments (NQMom) in fm**2, nuclear magnetic moments (NMagM)
  in nuclear magnetons)

  Atom         1           2           3           4           5           6           7           8           9          10
 IAtWgt=          12          12          12          12          16          12          16          14          12          12
 AtmWgt=  12.0000000  12.0000000  12.0000000  12.0000000  15.9949146  12.0000000  15.9949146  14.0030740  12.0000000  12.0000000
 NucSpn=           0           0           0           0           0           0           0           2           0           0
 AtZEff=   0.0000000   0.0000000   0.0000000   0.0000000   0.0000000   0.0000000   0.0000000   0.0000000   0.0000000   0.0000000
 NQMom=    0.0000000   0.0000000   0.0000000   0.0000000   0.0000000   0.0000000   0.0000000   2.0440000   0.0000000   0.0000000
 NMagM=    0.0000000   0.0000000   0.0000000   0.0000000   0.0000000   0.0000000   0.0000000   0.4037610   0.0000000   0.0000000
 AtZNuc=   6.0000000   6.0000000   6.0000000   6.0000000   8.0000000   6.0000000   8.0000000   7.0000000   6.0000000   6.0000000

  Atom        11          12          13          14          15          16          17          18          19          20
 IAtWgt=          12          12          16           1           1           1           1           1           1           1
 AtmWgt=  12.0000000  12.0000000  15.9949146   1.0078250   1.0078250   1.0078250   1.0078250   1.0078250   1.0078250   1.0078250
 NucSpn=           0           0           0           1           1           1           1           1           1           1
 AtZEff=   0.0000000   0.0000000   0.0000000   0.0000000   0.0000000   0.0000000   0.0000000   0.0000000   0.0000000   0.0000000
 NQMom=    0.0000000   0.0000000   0.0000000   0.0000000   0.0000000   0.0000000   0.0000000   0.0000000   0.0000000   0.0000000
 NMagM=    0.0000000   0.0000000   0.0000000   2.7928460   2.7928460   2.7928460   2.7928460   2.7928460   2.7928460   2.7928460
 AtZNuc=   6.0000000   6.0000000   8.0000000   1.0000000   1.0000000   1.0000000   1.0000000   1.0000000   1.0000000   1.0000000

  Atom        21          22          23          24          25          26          27          28          29          30
 IAtWgt=           1           1           1           1           1           1           1           1           1           1
 AtmWgt=   1.0078250   1.0078250   1.0078250   1.0078250   1.0078250   1.0078250   1.0078250   1.0078250   1.0078250   1.0078250
 NucSpn=           1           1           1           1           1           1           1           1           1           1
 AtZEff=   0.0000000   0.0000000   0.0000000   0.0000000   0.0000000   0.0000000   0.0000000   0.0000000   0.0000000   0.0000000
 NQMom=    0.0000000   0.0000000   0.0000000   0.0000000   0.0000000   0.0000000   0.0000000   0.0000000   0.0000000   0.0000000
 NMagM=    2.7928460   2.7928460   2.7928460   2.7928460   2.7928460   2.7928460   2.7928460   2.7928460   2.7928460   2.7928460
 AtZNuc=   1.0000000   1.0000000   1.0000000   1.0000000   1.0000000   1.0000000   1.0000000   1.0000000   1.0000000   1.0000000
 Leave Link  101 at Wed Oct 19 22:54:56 2011, MaxMem=  128000000 cpu:       0.9
 (Enter /home/foresman/gdv/l103.exe)

 GradGradGradGradGradGradGradGradGradGradGradGradGradGradGradGradGradGrad
 Berny optimization.
 Initialization pass.
 Trust Radius=3.00D-01 FncErr=1.00D-07 GrdErr=1.00D-07
 Number of steps in this run=      2 maximum allowed number of steps=      2.
 GradGradGradGradGradGradGradGradGradGradGradGradGradGradGradGradGradGrad

 Leave Link  103 at Wed Oct 19 22:54:56 2011, MaxMem=  128000000 cpu:       0.2
 (Enter /home/foresman/gdv/l202.exe)
                          Input orientation:                          
 ---------------------------------------------------------------------
 Center     Atomic      Atomic             Coordinates (Angstroms)
 Number     Number       Type             X           Y           Z
 ---------------------------------------------------------------------
      1          6           0       -0.170769   -2.312605    0.298107
      2          6           0       -0.915631   -2.977862   -0.870012
      3          6           0        1.224906   -2.916303    0.496250
      4          6           0       -0.992403   -2.347148    1.596344
      5          8           0        0.147869   -0.888858   -0.055346
      6          6           0       -0.895105   -0.012261   -0.316316
      7          8           0       -2.105759   -0.285431   -0.279769
      8          7           0       -0.395465    1.211892   -0.623076
      9          6           0       -1.301799    2.351137   -0.908197
     10          6           0       -0.338044    3.557862   -0.865339
     11          6           0        1.017233    2.959784   -1.325297
     12          6           0        1.034599    1.570470   -0.657212
     13          8           0        2.185374    3.677414   -0.848770
     14          1           0        2.234418    4.540884   -1.339568
     15          1           0       -1.093489   -4.033268   -0.638767
     16          1           0       -1.866254   -2.466877   -1.027916
     17          1           0       -0.310512   -2.911671   -1.780390
     18          1           0        1.139253   -3.973304    0.767273
     19          1           0        1.803000   -2.826165   -0.428231
     20          1           0        1.750698   -2.380523    1.292039
     21          1           0       -1.173073   -3.386655    1.889316
     22          1           0       -0.440177   -1.843792    2.396865
     23          1           0       -1.942303   -1.836371    1.433831
     24          1           0       -2.096021    2.401131   -0.159908
     25          1           0       -1.763000    2.236101   -1.896304
     26          1           0       -0.677486    4.388701   -1.489687
     27          1           0       -0.200318    3.903026    0.164202
     28          1           0        1.014448    2.842374   -2.418675
     29          1           0        1.456291    1.684127    0.347777
     30          1           0        1.612519    0.829789   -1.210424
 ---------------------------------------------------------------------
                    Distance matrix (angstroms):
                    1          2          3          4          5
     1  C    0.000000
     2  C    1.536843   0.000000
     3  C    1.533499   2.540150   0.000000
     4  C    1.536781   2.546882   2.539804   0.000000
     5  O    1.501171   2.481663   2.361101   2.480909   0.000000
     6  C    2.488727   3.016917   3.686213   3.019840   1.387200
     7  O    2.861392   3.002328   4.314745   3.001673   2.343786
     8  N    3.649815   4.229136   4.573892   4.236618   2.242918
     9  C    4.948221   5.343109   6.008547   5.333136   3.650543
    10  C    5.986983   6.561197   6.797907   6.430957   4.545934
    11  C    5.643126   6.260901   6.155449   6.382645   4.144951
    12  C    4.176580   4.953383   4.636574   4.953280   2.682690
    13  O    6.538124   7.342301   6.797697   7.236864   5.062785
    14  H    7.445617   8.165466   7.745901   8.153339   5.956930
    15  H    2.165601   1.094984   2.812620   2.801596   3.430549
    16  H    2.157963   1.090744   3.475677   2.768518   2.737285
    17  H    2.167615   1.095144   2.746019   3.490845   2.697715
    18  H    2.166609   2.809654   1.094551   2.806368   3.342656
    19  H    2.164965   2.758466   1.094067   3.484629   2.575200
    20  H    2.164382   3.484335   1.093983   2.760130   2.570908
    21  H    2.165674   2.801299   2.812857   1.095011   3.430100
    22  H    2.167292   3.490653   2.745017   1.095059   2.696486
    23  H    2.157545   2.768528   3.475129   1.090693   2.735736
    24  H    5.112306   5.552579   6.303507   5.181558   3.983717
    25  H    5.295409   5.381144   6.418657   5.813654   4.099502
    26  H    6.954169   7.396415   7.805518   7.415822   5.530929
    27  H    6.217143   6.994847   6.974579   6.460890   4.809531
    28  H    5.946381   6.324453   6.457820   6.861411   4.500930
    29  H    4.315514   5.370583   4.608637   4.879159   2.914571
    30  H    3.915408   4.583189   4.134753   4.975590   2.536365
                    6          7          8          9         10
     6  C    0.000000
     7  O    1.241629   0.000000
     8  N    1.357311   2.298900   0.000000
     9  C    2.470096   2.827148   1.483447   0.000000
    10  C    3.654794   4.270669   2.359144   1.544942   0.000000
    11  C    3.675341   4.623595   2.354561   2.433585   1.551139
    12  C    2.518929   3.667245   1.474730   2.476125   2.424292
    13  O    4.835965   5.868708   3.576376   3.731343   2.526302
    14  H    5.618905   6.576750   4.302538   4.181615   2.794421
    15  H    4.038791   3.898699   5.291426   6.393482   7.631991
    16  H    2.733980   2.318575   3.982518   4.852443   6.217663
    17  H    3.300279   3.517373   4.283733   5.425912   6.533983
    18  H    4.582864   5.022629   5.583430   6.983158   7.846418
    19  H    3.900045   4.664307   4.601860   6.055956   6.747661
    20  H    3.898172   4.661786   4.602079   6.045443   6.654437
    21  H    4.040868   3.897746   5.297492   6.384740   7.517427
    22  H    3.304969   3.516678   4.296423   5.409553   6.311123
    23  H    2.736242   2.317016   3.989422   4.840513   6.079275
    24  H    2.700208   2.689252   2.126194   1.092347   2.219491
    25  H    2.881793   3.014762   2.130789   1.096492   2.200100
    26  H    4.559893   5.035015   3.304946   2.208974   1.093309
    27  H    4.005383   4.622877   2.810710   2.184413   1.094560
    28  H    4.026816   4.908541   2.805441   2.808534   2.180370
    29  H    2.974527   4.118395   2.143493   3.103133   2.863943
    30  H    2.792249   3.991920   2.126730   3.301377   3.371373
                   11         12         13         14         15
    11  C    0.000000
    12  C    1.541698   0.000000
    13  O    1.451422   2.408358   0.000000
    14  H    1.995400   3.275444   0.994418   0.000000
    15  H    7.336842   5.994246   8.381507   9.224000   0.000000
    16  H    6.152363   4.985232   7.362071   8.125352   1.789465
    17  H    6.036887   4.812530   7.107278   7.887431   1.781667
    18  H    7.243028   5.724818   7.889199   8.839093   2.639257
    19  H    5.907568   4.469146   6.528369   7.435729   3.145007
    20  H    5.992270   4.463487   6.439768   7.420594   3.814313
    21  H    7.443686   5.994306   8.287180   9.213173   2.610679
    22  H    6.249231   4.812436   6.921805   7.866288   3.799432
    23  H    6.274930   4.984072   7.256019   8.112098   3.137276
    24  H    3.370841   3.276902   4.520372   4.972207   6.529614
    25  H    2.929071   3.131289   4.331785   4.647723   6.429201
    26  H    2.222813   3.400982   3.018720   2.919740   8.475063
    27  H    2.142602   2.764156   2.601641   2.931915   8.026660
    28  H    1.099667   2.172763   2.129075   2.353240   7.408503
    29  H    2.149244   1.095785   2.436490   3.407885   6.337448
    30  H    2.214597   1.090249   2.927102   3.765059   5.594514
                   16         17         18         19         20
    16  H    0.000000
    17  H    1.784486   0.000000
    18  H    3.811180   3.117606   0.000000
    19  H    3.735255   2.510493   1.784858   0.000000
    20  H    4.297905   3.737717   1.784992   1.777825   0.000000
    21  H    3.136357   3.799522   2.636283   3.813421   3.149202
    22  H    3.761789   4.313542   3.112072   3.738726   2.511703
    23  H    2.542346   3.761679   3.808775   4.298169   3.735566
    24  H    4.950124   5.834370   7.208334   6.526789   6.306315
    25  H    4.783592   5.350020   7.353531   6.363813   6.620031
    26  H    6.973188   7.315368   8.849720   7.702843   7.710802
    27  H    6.691199   7.087572   8.012160   7.046010   6.675437
    28  H    6.198451   5.939020   7.524580   6.059374   6.449040
    29  H    5.492055   5.363958   5.681815   4.589676   4.183262
    30  H    4.796162   4.245165   5.215838   3.743542   4.072777
                   21         22         23         24         25
    21  H    0.000000
    22  H    1.781900   0.000000
    23  H    1.789569   1.784340   0.000000
    24  H    6.208834   5.224776   4.529908   0.000000
    25  H    6.803992   6.068500   5.263742   1.775727   0.000000
    26  H    8.492316   7.348849   6.992728   2.780465   2.444865
    27  H    7.553920   6.169946   6.130836   2.440169   3.076735
    28  H    7.883199   6.874992   6.743503   3.869333   2.890442
    29  H    5.916310   4.499063   5.012371   3.659338   3.962878
    30  H    5.928432   4.937017   5.170808   4.162447   3.720520
                   26         27         28         29         30
    26  H    0.000000
    27  H    1.788552   0.000000
    28  H    2.473214   3.044978   0.000000
    29  H    3.904356   2.775169   3.031505   0.000000
    30  H    4.241222   3.823710   2.422407   1.783898   0.000000
 Stoichiometry    C9H17NO3
 Framework group  C1[X(C9H17NO3)]
 Deg. of freedom    84
 Full point group                 C1      NOp   1
 Largest Abelian subgroup         C1      NOp   1
 Largest concise Abelian subgroup C1      NOp   1
                         Standard orientation:                         
 ---------------------------------------------------------------------
 Center     Atomic      Atomic             Coordinates (Angstroms)
 Number     Number       Type             X           Y           Z
 ---------------------------------------------------------------------
      1          6           0        2.604506    0.386177    0.018168
      2          6           0        3.113799   -0.322703   -1.246741
      3          6           0        2.982754    1.872280    0.024965
      4          6           0        3.070041   -0.322685    1.299764
      5          8           0        1.104576    0.441816   -0.006910
      6          6           0        0.388773   -0.746324   -0.023400
      7          8           0        0.871221   -1.890321   -0.010865
      8          7           0       -0.941097   -0.476646   -0.055227
      9          6           0       -1.938140   -1.574943   -0.039008
     10          6           0       -3.255050   -0.820458    0.249690
     11          6           0       -3.021254    0.577357   -0.380773
     12          6           0       -1.543407    0.869477   -0.052948
     13          8           0       -3.808600    1.644129    0.209743
     14          1           0       -4.754372    1.515982   -0.069474
     15          1           0        4.208614   -0.308765   -1.260001
     16          1           0        2.755356   -1.352861   -1.250609
     17          1           0        2.742016    0.196024   -2.136708
     18          1           0        4.071761    1.980080    0.046956
     19          1           0        2.589610    2.359487   -0.872281
     20          1           0        2.553381    2.359792    0.905175
     21          1           0        4.163807   -0.309641    1.350294
     22          1           0        2.668182    0.196469    2.176202
     23          1           0        2.710647   -1.352431    1.291344
     24          1           0       -1.680623   -2.310420    0.726485
     25          1           0       -1.966351   -2.081467   -1.011084
     26          1           0       -4.131049   -1.335192   -0.154042
     27          1           0       -3.381628   -0.666764    1.325988
     28          1           0       -3.150964    0.514657   -1.470962
     29          1           0       -1.503195    1.338573    0.936534
     30          1           0       -1.057211    1.518938   -0.781273
 ---------------------------------------------------------------------
 Rotational constants (GHZ):      1.6035321      0.4077001      0.3556775
 Leave Link  202 at Wed Oct 19 22:54:56 2011, MaxMem=  128000000 cpu:       0.0
 (Enter /home/foresman/gdv/l301.exe)
 Standard basis: 3-21G (6D, 7F)
 Ernie: Thresh=  0.10000D-02 Tol=  0.10000D-05 Strict=F.
 There are   151 symmetry adapted cartesian basis functions of A   symmetry.
 There are   151 symmetry adapted basis functions of A   symmetry.
   151 basis functions,   246 primitive gaussians,   151 cartesian basis functions
    51 alpha electrons       51 beta electrons
       nuclear repulsion energy       871.5308215056 Hartrees.
 IExCor=  402 DFT=T Ex+Corr=B3LYP ExCW=0 ScaHFX=  0.200000
 ScaDFX=  0.800000  0.720000  1.000000  0.810000 ScalE2=  1.000000  1.000000
 IRadAn=      0 IRanWt=     -1 IRanGd=            0 ICorTp=0 IEmpDi=  4
 NAtoms=   30 NActive=   30 NUniq=   30 SFac= 1.00D+00 NAtFMM=   60 NAOKFM=F Big=F
 Integral buffers will be    131072 words long.
 Raffenetti 2 integral format.
 Two-electron integral symmetry is turned on.
 Leave Link  301 at Wed Oct 19 22:54:56 2011, MaxMem=  128000000 cpu:       0.6
 (Enter /home/foresman/gdv/l302.exe)
 NPDir=0 NMtPBC=     1 NCelOv=     1 NCel=       1 NClECP=     1 NCelD=      1
         NCelK=      1 NCelE2=     1 NClLst=     1 CellRange=     0.0.
 One-electron integrals computed using PRISM.
 NBasis=   151 RedAO= T EigKep=  8.95D-03  NBF=   151
 NBsUse=   151 1.00D-06 EigRej= -1.00D+00 NBFU=   151
 Precomputing XC quadrature grid using
 IXCGrd= 2 IRadAn=           0 IRanWt=          -1 IRanGd=           0 AccXCQ= 0.00D+00.
 NRdTot=    1902 NPtTot=      240680 NUsed=      254397 NTot=      254429
 NSgBfM=   149   149   149   149   149 NAtAll=    30    30.
 Leave Link  302 at Wed Oct 19 22:54:57 2011, MaxMem=  128000000 cpu:       2.3
 (Enter /home/foresman/gdv/l303.exe)
 DipDrv:  MaxL=2.
 Leave Link  303 at Wed Oct 19 22:54:57 2011, MaxMem=  128000000 cpu:       0.4
 (Enter /home/foresman/gdv/l401.exe)
 ExpMin= 1.83D-01 ExpMax= 3.22D+02 ExpMxC= 3.22D+02 IAcc=1 IRadAn=         1 AccDes= 0.00D+00
 Harris functional with IExCor=  402 and IRadAn=       1 diagonalized for initial guess.
 HarFok:  IExCor=  402 AccDes= 0.00D+00 IRadAn=         1 IDoV= 1 UseB2=F ITyADJ=14
 ICtDFT=  3500011 ScaDFX=  1.000000  1.000000  1.000000  1.000000
 FoFCou: FMM=F IPFlag=           0 FMFlag=      100000 FMFlg1=           0
         NFxFlg=           0 DoJE=T BraDBF=F KetDBF=T FulRan=T
         wScrn=  0.000000 ICntrl=     500 IOpCl=  0 I1Cent=   200000004 NGrid=           0
         NMat0=    1 NMatS0=      1 NMatT0=    0 NMatD0=    1 NMtDS0=    0 NMtDT0=    0
 Petite list used in FoFCou.
 Harris En= -630.189278390808    
 Initial guess orbital symmetries:
       Occupied  (A) (A) (A) (A) (A) (A) (A) (A) (A) (A) (A) (A)
                 (A) (A) (A) (A) (A) (A) (A) (A) (A) (A) (A) (A)
                 (A) (A) (A) (A) (A) (A) (A) (A) (A) (A) (A) (A)
                 (A) (A) (A) (A) (A) (A) (A) (A) (A) (A) (A) (A)
                 (A) (A) (A)
       Virtual   (A) (A) (A) (A) (A) (A) (A) (A) (A) (A) (A) (A)
                 (A) (A) (A) (A) (A) (A) (A) (A) (A) (A) (A) (A)
                 (A) (A) (A) (A) (A) (A) (A) (A) (A) (A) (A) (A)
                 (A) (A) (A) (A) (A) (A) (A) (A) (A) (A) (A) (A)
                 (A) (A) (A) (A) (A) (A) (A) (A) (A) (A) (A) (A)
                 (A) (A) (A) (A) (A) (A) (A) (A) (A) (A) (A) (A)
                 (A) (A) (A) (A) (A) (A) (A) (A) (A) (A) (A) (A)
                 (A) (A) (A) (A) (A) (A) (A) (A) (A) (A) (A) (A)
                 (A) (A) (A) (A)
 The electronic state of the initial guess is 1-A.
 Leave Link  401 at Wed Oct 19 22:54:57 2011, MaxMem=  128000000 cpu:       3.0
 (Enter /home/foresman/gdv/l502.exe)
 Closed shell SCF:
 Using DIIS extrapolation, IDIIS=  1040.
 Integral symmetry usage will be decided dynamically.
       254114 words used for storage of precomputed grid.
 Keep R1 ints in memory in canonical form, NReq=67953915.
 IVT=      343061 IEndB=      343061 NGot=   128000000 MDV=    61801914
 LenX=    61801914 LenY=    61778672
 Requested convergence on RMS density matrix=1.00D-08 within 128 cycles.
 Requested convergence on MAX density matrix=1.00D-06.
 Requested convergence on             energy=1.00D-06.
 No special actions if energy rises.
 FoFCou: FMM=F IPFlag=           0 FMFlag=           0 FMFlg1=           0
         NFxFlg=           0 DoJE=F BraDBF=F KetDBF=F FulRan=T
         wScrn=  0.000000 ICntrl=     600 IOpCl=  0 I1Cent=           0 NGrid=           0
         NMat0=    1 NMatS0=  11476 NMatT0=    0 NMatD0=    1 NMtDS0=    0 NMtDT0=    0
 Symmetry not used in FoFCou.
 Integral accuracy reduced to 1.0D-05 until final iterations.

 Cycle   1  Pass 0  IDiag  1:
 E= -629.849465536465    
 DIIS: error= 4.70D-02 at cycle   1 NSaved=   1.
 NSaved= 1 IEnMin= 1 EnMin= -629.849465536465     IErMin= 1 ErrMin= 4.70D-02
 ErrMax= 4.70D-02  0.00D+00 EMaxC= 1.00D-01 BMatC= 3.63D-01 BMatP= 3.63D-01
 IDIUse=3 WtCom= 5.30D-01 WtEn= 4.70D-01
 Coeff-Com:  0.100D+01
 Coeff-En:   0.100D+01
 Coeff:      0.100D+01
 Gap=     0.270 Goal=   None    Shift=    0.000
 GapD=    0.270 DampG=1.000 DampE=0.500 DampFc=0.5000 IDamp=-1.
 Damping current iteration by 5.00D-01
 RMSDP=8.91D-03 MaxDP=1.62D-01              OVMax= 3.02D-01

 Cycle   2  Pass 0  IDiag  1:
 E= -629.952865326007     Delta-E=       -0.103399789542 Rises=F Damp=T
 DIIS: error= 3.13D-02 at cycle   2 NSaved=   2.
 NSaved= 2 IEnMin= 2 EnMin= -629.952865326007     IErMin= 2 ErrMin= 3.13D-02
 ErrMax= 3.13D-02  0.00D+00 EMaxC= 1.00D-01 BMatC= 4.88D-02 BMatP= 3.63D-01
 IDIUse=3 WtCom= 6.87D-01 WtEn= 3.13D-01
 Coeff-Com:  0.196D+00 0.804D+00
 Coeff-En:   0.301D+00 0.699D+00
 Coeff:      0.229D+00 0.771D+00
 Gap=     0.305 Goal=   None    Shift=    0.000
 RMSDP=2.73D-03 MaxDP=6.03D-02 DE=-1.03D-01 OVMax= 2.00D-01

 Cycle   3  Pass 0  IDiag  1:
 E= -630.127070819166     Delta-E=       -0.174205493159 Rises=F Damp=F
 DIIS: error= 3.87D-02 at cycle   3 NSaved=   3.
 NSaved= 3 IEnMin= 3 EnMin= -630.127070819166     IErMin= 2 ErrMin= 3.13D-02
 ErrMax= 3.87D-02  0.00D+00 EMaxC= 1.00D-01 BMatC= 6.01D-02 BMatP= 4.88D-02
 IDIUse=2 WtCom= 0.00D+00 WtEn= 1.00D+00
 Coeff-En:   0.000D+00 0.000D+00 0.100D+01
 Coeff:      0.000D+00 0.000D+00 0.100D+01
 Gap=     0.329 Goal=   None    Shift=    0.000
 RMSDP=5.19D-03 MaxDP=1.31D-01 DE=-1.74D-01 OVMax= 3.05D-01

 Cycle   4  Pass 0  IDiag  1:
 E= -629.890810604677     Delta-E=        0.236260214489 Rises=F Damp=F
 DIIS: error= 1.08D-01 at cycle   4 NSaved=   4.
 NSaved= 4 IEnMin= 3 EnMin= -630.127070819166     IErMin= 2 ErrMin= 3.13D-02
 ErrMax= 1.08D-01  0.00D+00 EMaxC= 1.00D-01 BMatC= 3.64D-01 BMatP= 4.88D-02
 IDIUse=2 WtCom= 0.00D+00 WtEn= 1.00D+00
 Coeff-En:   0.000D+00 0.000D+00 0.798D+00 0.202D+00
 Coeff:      0.000D+00 0.000D+00 0.798D+00 0.202D+00
 Gap=     0.288 Goal=   None    Shift=    0.000
 RMSDP=2.81D-03 MaxDP=7.36D-02 DE= 2.36D-01 OVMax= 1.45D-01

 Cycle   5  Pass 0  IDiag  1:
 E= -630.157700326311     Delta-E=       -0.266889721634 Rises=F Damp=F
 DIIS: error= 2.61D-02 at cycle   5 NSaved=   5.
 NSaved= 5 IEnMin= 5 EnMin= -630.157700326311     IErMin= 5 ErrMin= 2.61D-02
 ErrMax= 2.61D-02  0.00D+00 EMaxC= 1.00D-01 BMatC= 2.43D-02 BMatP= 4.88D-02
 IDIUse=3 WtCom= 7.39D-01 WtEn= 2.61D-01
 Coeff-Com: -0.107D-01 0.507D-01 0.318D+00-0.713D-01 0.714D+00
 Coeff-En:   0.000D+00 0.000D+00 0.327D+00 0.000D+00 0.673D+00
 Coeff:     -0.788D-02 0.374D-01 0.320D+00-0.527D-01 0.703D+00
 Gap=     0.302 Goal=   None    Shift=    0.000
 RMSDP=1.05D-03 MaxDP=2.71D-02 DE=-2.67D-01 OVMax= 4.35D-02

 Cycle   6  Pass 0  IDiag  1:
 E= -630.177380821682     Delta-E=       -0.019680495371 Rises=F Damp=F
 DIIS: error= 2.40D-03 at cycle   6 NSaved=   6.
 NSaved= 6 IEnMin= 6 EnMin= -630.177380821682     IErMin= 6 ErrMin= 2.40D-03
 ErrMax= 2.40D-03  0.00D+00 EMaxC= 1.00D-01 BMatC= 2.58D-04 BMatP= 2.43D-02
 IDIUse=3 WtCom= 9.76D-01 WtEn= 2.40D-02
 Coeff-Com: -0.927D-02 0.237D-01 0.136D+00-0.462D-01 0.403D+00 0.493D+00
 Coeff-En:   0.000D+00 0.000D+00 0.000D+00 0.000D+00 0.000D+00 0.100D+01
 Coeff:     -0.905D-02 0.232D-01 0.133D+00-0.451D-01 0.393D+00 0.505D+00
 Gap=     0.285 Goal=   None    Shift=    0.000
 RMSDP=1.14D-04 MaxDP=3.75D-03 DE=-1.97D-02 OVMax= 6.30D-03

 Cycle   7  Pass 0  IDiag  1:
 E= -630.177585862369     Delta-E=       -0.000205040686 Rises=F Damp=F
 DIIS: error= 4.20D-04 at cycle   7 NSaved=   7.
 NSaved= 7 IEnMin= 7 EnMin= -630.177585862369     IErMin= 7 ErrMin= 4.20D-04
 ErrMax= 4.20D-04  0.00D+00 EMaxC= 1.00D-01 BMatC= 8.32D-06 BMatP= 2.58D-04
 IDIUse=3 WtCom= 9.96D-01 WtEn= 4.20D-03
 Coeff-Com: -0.291D-02 0.700D-02 0.333D-01-0.159D-01 0.117D+00 0.242D+00
 Coeff-Com:  0.619D+00
 Coeff-En:   0.000D+00 0.000D+00 0.000D+00 0.000D+00 0.000D+00 0.000D+00
 Coeff-En:   0.100D+01
 Coeff:     -0.290D-02 0.697D-02 0.331D-01-0.158D-01 0.117D+00 0.241D+00
 Coeff:      0.621D+00
 Gap=     0.285 Goal=   None    Shift=    0.000
 RMSDP=1.79D-05 MaxDP=5.09D-04 DE=-2.05D-04 OVMax= 7.09D-04

 Cycle   8  Pass 0  IDiag  1:
 E= -630.177592248878     Delta-E=       -0.000006386510 Rises=F Damp=F
 DIIS: error= 6.56D-05 at cycle   8 NSaved=   8.
 NSaved= 8 IEnMin= 8 EnMin= -630.177592248878     IErMin= 8 ErrMin= 6.56D-05
 ErrMax= 6.56D-05  0.00D+00 EMaxC= 1.00D-01 BMatC= 5.26D-07 BMatP= 8.32D-06
 IDIUse=1 WtCom= 1.00D+00 WtEn= 0.00D+00
 Coeff-Com: -0.197D-03-0.235D-03 0.227D-02-0.141D-02 0.115D-01 0.807D-01
 Coeff-Com:  0.309D+00 0.598D+00
 Coeff:     -0.197D-03-0.235D-03 0.227D-02-0.141D-02 0.115D-01 0.807D-01
 Coeff:      0.309D+00 0.598D+00
 Gap=     0.285 Goal=   None    Shift=    0.000
 RMSDP=5.58D-06 MaxDP=1.30D-04 DE=-6.39D-06 OVMax= 1.70D-04

 Initial convergence to 1.0D-05 achieved.  Increase integral accuracy.
 Cycle   9  Pass 1  IDiag  1:
 E= -630.177585047709     Delta-E=        0.000007201169 Rises=F Damp=F
 DIIS: error= 2.45D-05 at cycle   1 NSaved=   1.
 NSaved= 1 IEnMin= 1 EnMin= -630.177585047709     IErMin= 1 ErrMin= 2.45D-05
 ErrMax= 2.45D-05  0.00D+00 EMaxC= 1.00D-01 BMatC= 7.65D-08 BMatP= 7.65D-08
 IDIUse=1 WtCom= 1.00D+00 WtEn= 0.00D+00
 Coeff-Com:  0.100D+01
 Coeff:      0.100D+01
 Gap=     0.285 Goal=   None    Shift=    0.000
 RMSDP=5.58D-06 MaxDP=1.30D-04 DE= 7.20D-06 OVMax= 7.64D-05

 Cycle  10  Pass 1  IDiag  1:
 E= -630.177585132266     Delta-E=       -0.000000084558 Rises=F Damp=F
 DIIS: error= 1.73D-05 at cycle   2 NSaved=   2.
 NSaved= 2 IEnMin= 2 EnMin= -630.177585132266     IErMin= 2 ErrMin= 1.73D-05
 ErrMax= 1.73D-05  0.00D+00 EMaxC= 1.00D-01 BMatC= 2.40D-08 BMatP= 7.65D-08
 IDIUse=1 WtCom= 1.00D+00 WtEn= 0.00D+00
 Coeff-Com:  0.286D+00 0.714D+00
 Coeff:      0.286D+00 0.714D+00
 Gap=     0.285 Goal=   None    Shift=    0.000
 RMSDP=1.81D-06 MaxDP=4.11D-05 DE=-8.46D-08 OVMax= 6.95D-05

 Cycle  11  Pass 1  IDiag  1:
 E= -630.177585135752     Delta-E=       -0.000000003486 Rises=F Damp=F
 DIIS: error= 1.79D-05 at cycle   3 NSaved=   3.
 NSaved= 3 IEnMin= 3 EnMin= -630.177585135752     IErMin= 2 ErrMin= 1.73D-05
 ErrMax= 1.79D-05  0.00D+00 EMaxC= 1.00D-01 BMatC= 2.13D-08 BMatP= 2.40D-08
 IDIUse=1 WtCom= 1.00D+00 WtEn= 0.00D+00
 Coeff-Com: -0.137D-01 0.488D+00 0.526D+00
 Coeff:     -0.137D-01 0.488D+00 0.526D+00
 Gap=     0.285 Goal=   None    Shift=    0.000
 RMSDP=8.59D-07 MaxDP=2.77D-05 DE=-3.49D-09 OVMax= 3.76D-05

 Cycle  12  Pass 1  IDiag  1:
 E= -630.177585150745     Delta-E=       -0.000000014993 Rises=F Damp=F
 DIIS: error= 1.79D-06 at cycle   4 NSaved=   4.
 NSaved= 4 IEnMin= 4 EnMin= -630.177585150745     IErMin= 4 ErrMin= 1.79D-06
 ErrMax= 1.79D-06  0.00D+00 EMaxC= 1.00D-01 BMatC= 3.72D-10 BMatP= 2.13D-08
 IDIUse=1 WtCom= 1.00D+00 WtEn= 0.00D+00
 Coeff-Com: -0.150D-01 0.251D+00 0.280D+00 0.484D+00
 Coeff:     -0.150D-01 0.251D+00 0.280D+00 0.484D+00
 Gap=     0.285 Goal=   None    Shift=    0.000
 RMSDP=1.77D-07 MaxDP=6.35D-06 DE=-1.50D-08 OVMax= 6.49D-06

 Cycle  13  Pass 1  IDiag  1:
 E= -630.177585151041     Delta-E=       -0.000000000296 Rises=F Damp=F
 DIIS: error= 1.06D-06 at cycle   5 NSaved=   5.
 NSaved= 5 IEnMin= 5 EnMin= -630.177585151041     IErMin= 5 ErrMin= 1.06D-06
 ErrMax= 1.06D-06  0.00D+00 EMaxC= 1.00D-01 BMatC= 5.15D-11 BMatP= 3.72D-10
 IDIUse=1 WtCom= 1.00D+00 WtEn= 0.00D+00
 Coeff-Com: -0.697D-02 0.895D-01 0.973D-01 0.290D+00 0.530D+00
 Coeff:     -0.697D-02 0.895D-01 0.973D-01 0.290D+00 0.530D+00
 Gap=     0.285 Goal=   None    Shift=    0.000
 RMSDP=5.98D-08 MaxDP=1.40D-06 DE=-2.96D-10 OVMax= 2.66D-06

 Cycle  14  Pass 1  IDiag  1:
 E= -630.177585151091     Delta-E=       -0.000000000050 Rises=F Damp=F
 DIIS: error= 5.20D-07 at cycle   6 NSaved=   6.
 NSaved= 6 IEnMin= 6 EnMin= -630.177585151091     IErMin= 6 ErrMin= 5.20D-07
 ErrMax= 5.20D-07  0.00D+00 EMaxC= 1.00D-01 BMatC= 9.35D-12 BMatP= 5.15D-11
 IDIUse=1 WtCom= 1.00D+00 WtEn= 0.00D+00
 Coeff-Com: -0.317D-02 0.349D-01 0.365D-01 0.140D+00 0.341D+00 0.450D+00
 Coeff:     -0.317D-02 0.349D-01 0.365D-01 0.140D+00 0.341D+00 0.450D+00
 Gap=     0.285 Goal=   None    Shift=    0.000
 RMSDP=2.08D-08 MaxDP=4.62D-07 DE=-5.00D-11 OVMax= 1.01D-06

 Cycle  15  Pass 1  IDiag  1:
 E= -630.177585151090     Delta-E=        0.000000000001 Rises=F Damp=F
 DIIS: error= 8.08D-08 at cycle   7 NSaved=   7.
 NSaved= 7 IEnMin= 6 EnMin= -630.177585151091     IErMin= 7 ErrMin= 8.08D-08
 ErrMax= 8.08D-08  0.00D+00 EMaxC= 1.00D-01 BMatC= 4.17D-13 BMatP= 9.35D-12
 IDIUse=1 WtCom= 1.00D+00 WtEn= 0.00D+00
 Coeff-Com: -0.505D-03 0.424D-02 0.384D-02 0.298D-01 0.872D-01 0.215D+00
 Coeff-Com:  0.661D+00
 Coeff:     -0.505D-03 0.424D-02 0.384D-02 0.298D-01 0.872D-01 0.215D+00
 Coeff:      0.661D+00
 Gap=     0.285 Goal=   None    Shift=    0.000
 RMSDP=5.63D-09 MaxDP=1.31D-07 DE= 9.09D-13 OVMax= 1.71D-07

 SCF Done:  E(RB3LYP) =  -630.177585151     A.U. after   15 cycles
            NFock= 15  Conv=0.56D-08     -V/T= 2.0085
 KE= 6.248489343518D+02 PE=-3.212755012618D+03 EE= 1.086197671610D+03
 Leave Link  502 at Wed Oct 19 22:55:09 2011, MaxMem=  128000000 cpu:      96.2
 (Enter /home/foresman/gdv/l801.exe)
 DoSCS=F DFT=T ScalE2(SS,OS)=  1.000000  1.000000
 Range of M.O.s used for correlation:     1   151
 NBasis=   151 NAE=    51 NBE=    51 NFC=     0 NFV=     0
 NROrb=    151 NOA=    51 NOB=    51 NVA=   100 NVB=   100
 Leave Link  801 at Wed Oct 19 22:55:09 2011, MaxMem=  128000000 cpu:       0.3
 (Enter /home/foresman/gdv/l1002.exe)
 Minotr:  Closed shell wavefunction.
          Direct CPHF calculation.
          Differentiating once with respect to magnetic field using GIAOs.
          Electric field/nuclear overlap derivatives assumed to be zero.
          Requested convergence is 1.0D-08 RMS, and 1.0D-07 maximum.
          Secondary convergence is 1.0D-12 RMS, and 1.0D-12 maximum.
          NewPWx=T KeepS1=F KeepF1=F KeepIn=T MapXYZ=F SortEE=F KeepMc=T.
          MDV=     127999605 using IRadAn=       2.
 Generate precomputed XC quadrature information.
 Keep R3 ints in memory in canonical form, NReq=67618787.
 FoFCou: FMM=F IPFlag=           0 FMFlag=           0 FMFlg1=           0
         NFxFlg=           0 DoJE=F BraDBF=F KetDBF=F FulRan=T
         wScrn=  0.000000 ICntrl=     600 IOpCl=  0 I1Cent=           0 NGrid=           0
         NMat0=    1 NMatS0=  11476 NMatT0=    0 NMatD0=    1 NMtDS0=    0 NMtDT0=    0
 Symmetry not used in FoFCou.
          Solving linear equations simultaneously, MaxMat=       0.
 FoFJK:  IHMeth= 1 ICntrl=    6127 DoSepK=F KAlg= 0 I1Cent=   0 FoldK=F
 IRaf=       1 NMat=   1 IRICut=       1 DoRegI=T DoRafI=F ISym2E= 0.
          There are     3 degrees of freedom in the 1st order CPHF.  IDoFFX=0 NUNeed=     3.
      3 vectors produced by pass  0 Test12= 1.70D-13 3.33D-08 XBig12= 2.88D+01 8.27D-01.
 AX will form     3 AO Fock derivatives at one time.
      3 vectors produced by pass  1 Test12= 1.70D-13 3.33D-08 XBig12= 2.95D-02 6.90D-02.
      3 vectors produced by pass  2 Test12= 1.70D-13 3.33D-08 XBig12= 1.64D-04 4.79D-03.
      3 vectors produced by pass  3 Test12= 1.70D-13 3.33D-08 XBig12= 3.19D-07 2.01D-04.
      3 vectors produced by pass  4 Test12= 1.70D-13 3.33D-08 XBig12= 7.26D-10 1.28D-05.
      3 vectors produced by pass  5 Test12= 1.70D-13 3.33D-08 XBig12= 2.61D-12 4.46D-07.
 InvSVY:  IOpt=1 It=  1 EMax= 8.88D-16
 Solved reduced A of dimension    18 with     3 vectors.
 Calculating GIAO nuclear magnetic shielding tensors.
 SCF GIAO Magnetic shielding tensor (ppm):
      1  C    Isotropic =   124.1585   Anisotropy =    68.9233
   XX=   169.8078   YX=     4.2367   ZX=     1.1751
   XY=     4.6628   YY=    99.6331   ZY=     0.0665
   XZ=     1.0606   YZ=    -0.1439   ZZ=   103.0344
   Eigenvalues:    99.3488   103.0192   170.1074
      2  C    Isotropic =   178.6851   Anisotropy =    35.4160
   XX=   172.6553   YX=    -7.6757   ZX=    -7.6508
   XY=    -7.4223   YY=   168.4670   ZY=    13.1268
   XZ=    -3.5993   YZ=    12.3530   ZZ=   194.9329
   Eigenvalues:   160.9455   172.8139   202.2957
      3  C    Isotropic =   173.8280   Anisotropy =    40.8911
   XX=   162.8360   YX=    10.1002   ZX=     0.2233
   XY=     7.3177   YY=   199.1052   ZY=     0.1372
   XZ=     0.1195   YZ=     0.1515   ZZ=   159.5428
   Eigenvalues:   159.5282   160.8670   201.0888
      4  C    Isotropic =   178.6923   Anisotropy =    35.3601
   XX=   172.4221   YX=    -7.1849   ZX=     7.0193
   XY=    -6.8641   YY=   168.4849   ZY=   -13.3464
   XZ=     2.8850   YZ=   -12.7172   ZZ=   195.1700
   Eigenvalues:   161.0382   172.7731   202.2657
      5  O    Isotropic =   159.2517   Anisotropy =    81.8777
   XX=   113.6315   YX=     8.3679   ZX=    -1.2050
   XY=   133.9147   YY=   161.6866   ZY=     1.5957
   XZ=    -5.7216   YZ=    -5.2883   ZZ=   202.4370
   Eigenvalues:    62.5482   201.3702   213.8369
      6  C    Isotropic =    62.0342   Anisotropy =    61.6815
   XX=    16.6695   YX=   -40.2460   ZX=    -1.6802
   XY=   -58.7816   YY=    74.8068   ZY=    -1.2617
   XZ=    -3.0742   YZ=    -1.2554   ZZ=    94.6262
   Eigenvalues:   -11.7458    94.6932   103.1552
      7  O    Isotropic =    43.1594   Anisotropy =   390.1450
   XX=   -65.5960   YX=    12.5884   ZX=   -10.5695
   XY=     5.6937   YY=  -107.9528   ZY=    -1.9046
   XZ=    -6.0254   YZ=    -6.0288   ZZ=   303.0271
   Eigenvalues:  -109.8531   -63.9246   303.2561
      8  N    Isotropic =   180.7964   Anisotropy =   131.9697
   XX=   268.2366   YX=     0.3685   ZX=     0.1157
   XY=   -16.0029   YY=   128.6823   ZY=    -4.2385
   XZ=    -7.7419   YZ=    -4.5261   ZZ=   145.4703
   Eigenvalues:   127.0946   146.5184   268.7762
      9  C    Isotropic =   159.3132   Anisotropy =    48.2745
   XX=   177.8138   YX=    19.5371   ZX=    -2.5074
   XY=    16.3616   YY=   167.3563   ZY=    -1.5811
   XZ=    -6.9096   YZ=     2.2976   ZZ=   132.7694
   Eigenvalues:   132.1115   154.3318   191.4962
     10  C    Isotropic =   168.9921   Anisotropy =    30.0254
   XX=   167.1841   YX=    -2.3774   ZX=    -6.6984
   XY=    -3.7256   YY=   186.6950   ZY=    -7.6893
   XZ=   -12.6935   YZ=   -10.4686   ZZ=   153.0972
   Eigenvalues:   145.9491   172.0181   189.0090
     11  C    Isotropic =   132.5451   Anisotropy =    58.4111
   XX=   143.5011   YX=   -21.0023   ZX=   -17.7420
   XY=   -21.8594   YY=   151.9674   ZY=     7.9454
   XZ=   -11.4915   YZ=    -2.6469   ZZ=   102.1667
   Eigenvalues:    97.1776   128.9718   171.4858
     12  C    Isotropic =   153.0020   Anisotropy =    41.6327
   XX=   167.5222   YX=   -16.3857   ZX=     3.9326
   XY=   -16.1930   YY=   160.5359   ZY=     0.4529
   XZ=     8.1679   YZ=     8.7445   ZZ=   130.9478
   Eigenvalues:   128.0642   150.1847   180.7571
     13  O    Isotropic =   275.3518   Anisotropy =    56.1744
   XX=   306.9600   YX=   -11.2554   ZX=     1.3179
   XY=    10.3382   YY=   250.8487   ZY=    -8.0465
   XZ=    30.9113   YZ=     5.6206   ZZ=   268.2466
   Eigenvalues:   250.7541   262.4998   312.8014
     14  H    Isotropic =    32.3169   Anisotropy =    16.9248
   XX=    42.6301   YX=    -3.2044   ZX=     2.6277
   XY=    -2.8069   YY=    28.3326   ZY=     1.4802
   XZ=     3.0729   YZ=     1.3512   ZZ=    25.9880
   Eigenvalues:    24.4787    28.8719    43.6001
     15  H    Isotropic =    31.9671   Anisotropy =     9.1493
   XX=    36.4257   YX=    -1.4039   ZX=    -2.7406
   XY=    -1.7366   YY=    28.6489   ZY=     1.2790
   XZ=    -3.0975   YZ=     1.1854   ZZ=    30.8266
   Eigenvalues:    28.0827    29.7519    38.0666
     16  H    Isotropic =    29.7904   Anisotropy =     6.5277
   XX=    28.9142   YX=     1.1879   ZX=    -2.5463
   XY=     1.7697   YY=    32.9709   ZY=     1.9874
   XZ=    -3.4327   YZ=     3.5636   ZZ=    27.4861
   Eigenvalues:    24.0479    31.1812    34.1422
     17  H    Isotropic =    31.8289   Anisotropy =     7.8027
   XX=    29.7532   YX=    -0.3632   ZX=    -0.6658
   XY=    -0.2861   YY=    28.8364   ZY=    -0.3709
   XZ=     0.3708   YZ=    -1.7094   ZZ=    36.8972
   Eigenvalues:    28.6033    29.8527    37.0308
     18  H    Isotropic =    31.7737   Anisotropy =     8.8651
   XX=    35.1098   YX=     3.6298   ZX=     0.1926
   XY=     3.9349   YY=    32.1152   ZY=     0.1014
   XZ=     0.1405   YZ=     0.0428   ZZ=    28.0961
   Eigenvalues:    28.0920    29.5454    37.6837
     19  H    Isotropic =    31.3386   Anisotropy =     7.8971
   XX=    28.9404   YX=     0.3380   ZX=     0.7776
   XY=    -0.5251   YY=    34.1320   ZY=    -4.2757
   XZ=     0.9748   YZ=    -3.1147   ZZ=    30.9435
   Eigenvalues:    28.0004    29.4121    36.6033
     20  H    Isotropic =    31.2927   Anisotropy =     7.9296
   XX=    28.9463   YX=     0.1840   ZX=    -0.7191
   XY=    -0.7096   YY=    34.0943   ZY=     4.3474
   XZ=    -1.0313   YZ=     3.0667   ZZ=    30.8374
   Eigenvalues:    28.0183    29.2806    36.5791
     21  H    Isotropic =    31.9687   Anisotropy =     9.1733
   XX=    36.2113   YX=    -1.3823   ZX=     2.9939
   XY=    -1.6981   YY=    28.6616   ZY=    -1.2746
   XZ=     3.2701   YZ=    -1.2660   ZZ=    31.0331
   Eigenvalues:    28.1038    29.7180    38.0842
     22  H    Isotropic =    31.7707   Anisotropy =     7.8192
   XX=    29.6670   YX=    -0.4810   ZX=     0.5017
   XY=    -0.3293   YY=    28.7996   ZY=     0.4532
   XZ=    -0.6382   YZ=     1.6563   ZZ=    36.8456
   Eigenvalues:    28.5278    29.8008    36.9836
     23  H    Isotropic =    29.7700   Anisotropy =     6.5183
   XX=    28.6726   YX=     1.3005   ZX=     2.6576
   XY=     1.8311   YY=    32.9607   ZY=    -1.8359
   XZ=     3.4190   YZ=    -3.5678   ZZ=    27.6766
   Eigenvalues:    24.0329    31.1614    34.1155
     24  H    Isotropic =    29.3270   Anisotropy =     8.2291
   XX=    29.2055   YX=     0.8031   ZX=    -0.3390
   XY=    -0.3379   YY=    32.3532   ZY=    -4.9783
   XZ=     0.1056   YZ=    -4.0791   ZZ=    26.4222
   Eigenvalues:    23.9745    29.1934    34.8130
     25  H    Isotropic =    29.7247   Anisotropy =     9.7117
   XX=    29.1082   YX=     2.3671   ZX=     0.5012
   XY=     1.7135   YY=    31.0399   ZY=     5.6973
   XZ=     0.3642   YZ=     5.4864   ZZ=    29.0259
   Eigenvalues:    24.1468    28.8281    36.1991
     26  H    Isotropic =    31.2958   Anisotropy =     9.5681
   XX=    35.4059   YX=     3.1349   ZX=     1.5864
   XY=     4.0720   YY=    31.2302   ZY=     0.7740
   XZ=     0.8772   YZ=     0.6160   ZZ=    27.2514
   Eigenvalues:    27.0594    29.1535    37.6745
     27  H    Isotropic =    30.9626   Anisotropy =     7.7660
   XX=    30.6209   YX=    -1.1526   ZX=    -3.6640
   XY=    -0.5656   YY=    28.3870   ZY=    -1.4953
   XZ=    -3.3626   YZ=    -0.4455   ZZ=    33.8798
   Eigenvalues:    27.1289    29.6189    36.1399
     28  H    Isotropic =    28.5163   Anisotropy =     5.1429
   XX=    27.8907   YX=    -1.0639   ZX=     0.6785
   XY=    -1.5958   YY=    26.5682   ZY=    -0.1434
   XZ=     2.1141   YZ=    -1.6593   ZZ=    31.0900
   Eigenvalues:    25.7441    27.8600    31.9449
     29  H    Isotropic =    29.6219   Anisotropy =     6.8815
   XX=    29.6256   YX=    -1.3480   ZX=     1.1710
   XY=    -1.3832   YY=    30.6150   ZY=     4.4050
   XZ=     1.0318   YZ=     4.4873   ZZ=    28.6250
   Eigenvalues:    24.4905    30.1655    34.2096
     30  H    Isotropic =    29.2160   Anisotropy =     6.0293
   XX=    31.5030   YX=     0.6934   ZX=    -0.8074
   XY=     0.6178   YY=    30.1943   ZY=    -4.1602
   XZ=    -1.4792   YZ=    -3.5163   ZZ=    25.9507
   Eigenvalues:    23.6318    30.7806    33.2355
 End of Minotr F.D. properties file   721 does not exist.
 End of Minotr F.D. properties file   722 does not exist.
 Leave Link 1002 at Wed Oct 19 22:55:19 2011, MaxMem=  128000000 cpu:      79.5
 (Enter /home/foresman/gdv/l1101.exe)
 Using compressed storage, NAtomX=    30.
 Will process     31 centers per pass.
 Leave Link 1101 at Wed Oct 19 22:55:20 2011, MaxMem=  128000000 cpu:       1.8
 (Enter /home/foresman/gdv/l1102.exe)
 Symmetrizing basis deriv contribution to polar:
 IMax=3 JMax=2 DiffMx= 0.00D+00
 Leave Link 1102 at Wed Oct 19 22:55:20 2011, MaxMem=  128000000 cpu:       0.4
 (Enter /home/foresman/gdv/l1110.exe)
 Forming Gx(P) for the SCF density, NAtomX=    30.
 Integral derivatives from FoFJK, PRISM(SPDF).
 Do as many integral derivatives as possible in FoFJK.
 G2DrvN: MDV=     127999656.
 G2DrvN: will do    31 centers at a time, making    1 passes.
 Calling FoFCou, ICntrl=  3107 FMM=F I1Cent=   0 AccDes= 0.00D+00.
 FoFJK:  IHMeth= 1 ICntrl=    3107 DoSepK=F KAlg= 0 I1Cent=   0 FoldK=F
 IRaf=       0 NMat=   1 IRICut=       1 DoRegI=T DoRafI=F ISym2E= 0.
 FoFCou: FMM=F IPFlag=           0 FMFlag=      100000 FMFlg1=           0
         NFxFlg=           0 DoJE=F BraDBF=F KetDBF=F FulRan=T
         wScrn=  0.000000 ICntrl=    3107 IOpCl=  0 I1Cent=           0 NGrid=           0
         NMat0=    1 NMatS0=      1 NMatT0=    0 NMatD0=    1 NMtDS0=    0 NMtDT0=    0
 Symmetry not used in FoFCou.
 End of G2Drv F.D. properties file   721 does not exist.
 End of G2Drv F.D. properties file   722 does not exist.
 Leave Link 1110 at Wed Oct 19 22:55:50 2011, MaxMem=  128000000 cpu:     245.3
 (Enter /home/foresman/gdv/l1002.exe)
 Minotr:  Closed shell wavefunction.
          IDoAtm=111111111111111111111111111111
          Direct CPHF calculation.
          Differentiating once with respect to electric field.
                with respect to dipole field.
          Differentiating once with respect to nuclear coordinates.
          Requested convergence is 1.0D-08 RMS, and 1.0D-07 maximum.
          Secondary convergence is 1.0D-12 RMS, and 1.0D-12 maximum.
          NewPWx=T KeepS1=F KeepF1=F KeepIn=T MapXYZ=F SortEE=F KeepMc=T.
          MDV=     127999545 using IRadAn=       2.
 Generate precomputed XC quadrature information.
 Keep R1 ints in memory in canonical form, NReq=67619516.
 FoFCou: FMM=F IPFlag=           0 FMFlag=           0 FMFlg1=           0
         NFxFlg=           0 DoJE=F BraDBF=F KetDBF=F FulRan=T
         wScrn=  0.000000 ICntrl=     600 IOpCl=  0 I1Cent=           0 NGrid=           0
         NMat0=    1 NMatS0=  11476 NMatT0=    0 NMatD0=    1 NMtDS0=    0 NMtDT0=    0
 Symmetry not used in FoFCou.
          Solving linear equations simultaneously, MaxMat=       0.
          There are    93 degrees of freedom in the 1st order CPHF.  IDoFFX=5 NUNeed=    93.
     90 vectors produced by pass  0 Test12= 5.48D-15 1.08D-09 XBig12= 7.76D+01 3.92D+00.
 AX will form    90 AO Fock derivatives at one time.
     90 vectors produced by pass  1 Test12= 5.48D-15 1.08D-09 XBig12= 9.08D+00 7.39D-01.
     90 vectors produced by pass  2 Test12= 5.48D-15 1.08D-09 XBig12= 3.53D-02 2.22D-02.
     90 vectors produced by pass  3 Test12= 5.48D-15 1.08D-09 XBig12= 5.74D-05 1.05D-03.
     90 vectors produced by pass  4 Test12= 5.48D-15 1.08D-09 XBig12= 4.46D-08 2.06D-05.
     42 vectors produced by pass  5 Test12= 5.48D-15 1.08D-09 XBig12= 2.67D-11 5.44D-07.
      3 vectors produced by pass  6 Test12= 5.48D-15 1.08D-09 XBig12= 1.18D-14 1.11D-08.
 InvSVY:  IOpt=1 It=  1 EMax= 1.07D-14
 Solved reduced A of dimension   495 with    93 vectors.
 FullF1:  Do perturbations    1 to     3.
 Isotropic polarizability for W=    0.000000      103.90 Bohr**3.
 Dipole-magnetic dipole polarizability for W=    0.000000:
                 1             2             3 
      1   0.165492D+01 -0.372341D+01 -0.408123D+00
      2  -0.856199D-01 -0.422851D+01  0.293716D+02
      3  -0.203852D+02 -0.103711D+02  0.324859D+01
 DQ contribution to OR G for W=    0.000000:
                 1             2             3 
      1  -0.114334D+01 -0.474450D+01 -0.234839D+02
      2   0.292395D+01 -0.437320D+01  0.602909D+02
      3  -0.131971D+02 -0.414716D+02  0.551654D+01
 Optical Rotation G' tensor for W=    0.000000:
                 1             2             3 
      1  -0.775792D+00  0.724687D+00  0.613191D+00
      2   0.724687D+00  0.135846D+01 -0.239771D+01
      3   0.613191D+00 -0.239771D+01  0.923417D-01
 OR G Eigenvalues:    -2.3162    -0.2245     3.2157  Iso=    -0.2250
 Eigenvectors:
   (1)  -0.517729   0.536793   0.666191
   (2)   0.853945   0.276637   0.440737
   (3)   0.052291   0.797073  -0.601615
 w=    0.000000 a.u., Optical Rotation Beta=     -0.2250 au.
 Molar Mass =    187.2382 grams/mole, [Alpha]D (static) =      -46.45 deg.
 AAT (total):
  0.0011 -0.0087 -0.1167
 -0.0024 -0.0048  0.3667
  0.1173 -0.3459  0.0019
 -0.0552  0.1504 -0.1377
 -0.1630  0.1231 -0.2181
  0.0201  0.2076 -0.0815
 -0.0006 -0.0011  0.1886
  0.0000  0.0026 -0.1713
 -0.1116  0.0107 -0.0034
  0.0590 -0.1534 -0.1379
  0.1683 -0.1220 -0.2146
  0.0224  0.2049  0.0755
  0.0019  0.0172  0.2474
 -0.0044 -0.0014 -0.2641
 -0.5759  0.3437  0.0040
 -0.0367 -0.0402  0.9847
  0.0219  0.0104 -0.1636
 -0.2616 -0.0944  0.0455
  0.0001  0.0055 -1.1940
 -0.0197 -0.0234  0.0335
  1.0745  0.3950  0.0125
  0.0324  0.0332 -0.5178
 -0.0190 -0.0556  0.3983
  0.0785 -0.4246  0.0304
 -0.0256  0.0764  0.1123
 -0.0678  0.0307 -0.1620
 -0.0091  0.2082 -0.1088
 -0.0168  0.0064 -0.1079
  0.0235  0.1254  0.3796
  0.1100 -0.0910 -0.0855
 -0.0812 -0.1051 -0.0694
 -0.0165  0.0033 -0.7704
  0.1510  0.5510  0.1689
 -0.0276 -0.0884  0.0504
  0.0504  0.0486 -0.3106
 -0.0841  0.2507 -0.0258
  0.1600  0.2482  0.0152
  0.1281  0.1405  1.3337
 -0.5908 -1.0001 -0.2232
 -0.0689 -0.2565  0.1475
 -0.0213 -0.1532 -0.7019
  0.2095  0.6753  0.2438
 -0.0029  0.1273 -0.0631
  0.0389  0.0125  0.2667
 -0.0032 -0.2281 -0.0105
  0.0548 -0.0354  0.2609
 -0.0581  0.0501 -0.1414
 -0.2085 -0.0528 -0.1312
  0.0539 -0.0413 -0.0122
  0.0970 -0.1848 -0.0273
  0.1700  0.2399  0.0824
 -0.0046  0.0080  0.1223
 -0.0038 -0.0005  0.2493
  0.0804 -0.2650  0.0051
 -0.0719 -0.0402 -0.0506
  0.2022 -0.0912 -0.0794
 -0.0517  0.1640  0.2126
  0.0750  0.0346 -0.0425
 -0.1983  0.0895 -0.0849
 -0.0398  0.1595 -0.2115
  0.0054 -0.1151 -0.0632
 -0.0456 -0.0129  0.2649
 -0.0036 -0.2309  0.0094
 -0.0577  0.0347 -0.0121
 -0.0967  0.1827 -0.0293
  0.1689  0.2367 -0.0759
 -0.0587  0.0330  0.2552
  0.0619 -0.0494 -0.1385
 -0.2158 -0.0533  0.1322
  0.0671  0.1079  0.0860
 -0.1749  0.0298  0.0480
  0.0084 -0.0575 -0.1405
 -0.0218 -0.1284  0.0433
  0.1949 -0.0162 -0.0405
  0.1301 -0.1202  0.1001
  0.0407 -0.1719  0.1486
  0.0880 -0.0538 -0.1573
 -0.0482  0.1315  0.0285
 -0.0001  0.1893 -0.0280
 -0.1847 -0.0863 -0.0673
  0.0690 -0.1940  0.0446
  0.0040 -0.0647  0.0212
  0.0594 -0.0671  0.0389
 -0.0280 -0.2476 -0.0214
 -0.0047  0.2070 -0.1102
 -0.1614 -0.0151  0.0191
 -0.0887 -0.0833  0.0690
  0.0477 -0.1085 -0.0916
  0.1339  0.0231  0.1132
 -0.0037 -0.0507 -0.1496
 End of Minotr F.D. properties file   721 does not exist.
 End of Minotr F.D. properties file   722 does not exist.
 Leave Link 1002 at Wed Oct 19 22:56:19 2011, MaxMem=  128000000 cpu:     232.1
 (Enter /home/foresman/gdv/l601.exe)
 Copying SCF densities to generalized density rwf, IOpCl= 0 IROHF=0.

 **********************************************************************

            Population analysis using the SCF density.

 **********************************************************************

 Orbital symmetries:
       Occupied  (A) (A) (A) (A) (A) (A) (A) (A) (A) (A) (A) (A)
                 (A) (A) (A) (A) (A) (A) (A) (A) (A) (A) (A) (A)
                 (A) (A) (A) (A) (A) (A) (A) (A) (A) (A) (A) (A)
                 (A) (A) (A) (A) (A) (A) (A) (A) (A) (A) (A) (A)
                 (A) (A) (A)
       Virtual   (A) (A) (A) (A) (A) (A) (A) (A) (A) (A) (A) (A)
                 (A) (A) (A) (A) (A) (A) (A) (A) (A) (A) (A) (A)
                 (A) (A) (A) (A) (A) (A) (A) (A) (A) (A) (A) (A)
                 (A) (A) (A) (A) (A) (A) (A) (A) (A) (A) (A) (A)
                 (A) (A) (A) (A) (A) (A) (A) (A) (A) (A) (A) (A)
                 (A) (A) (A) (A) (A) (A) (A) (A) (A) (A) (A) (A)
                 (A) (A) (A) (A) (A) (A) (A) (A) (A) (A) (A) (A)
                 (A) (A) (A) (A) (A) (A) (A) (A) (A) (A) (A) (A)
                 (A) (A) (A) (A)
 The electronic state is 1-A.
 Alpha  occ. eigenvalues --  -19.05562 -19.03501 -18.99367 -14.27595 -10.25708
 Alpha  occ. eigenvalues --  -10.18499 -10.18496 -10.16209 -10.15556 -10.13021
 Alpha  occ. eigenvalues --  -10.10688 -10.09920 -10.09855  -1.07575  -1.01553
 Alpha  occ. eigenvalues --   -0.99234  -0.94034  -0.80853  -0.77921  -0.74069
 Alpha  occ. eigenvalues --   -0.68741  -0.68366  -0.65182  -0.59849  -0.58165
 Alpha  occ. eigenvalues --   -0.54700  -0.52701  -0.49329  -0.46555  -0.45070
 Alpha  occ. eigenvalues --   -0.44809  -0.44415  -0.43349  -0.42236  -0.41741
 Alpha  occ. eigenvalues --   -0.40719  -0.39781  -0.38873  -0.38044  -0.37092
 Alpha  occ. eigenvalues --   -0.36926  -0.35906  -0.35585  -0.33706  -0.33670
 Alpha  occ. eigenvalues --   -0.31945  -0.31691  -0.26516  -0.26013  -0.24244
 Alpha  occ. eigenvalues --   -0.22574
 Alpha virt. eigenvalues --    0.05905   0.08145   0.10236   0.11294   0.12068
 Alpha virt. eigenvalues --    0.13994   0.15440   0.16627   0.17290   0.17570
 Alpha virt. eigenvalues --    0.17856   0.18062   0.18707   0.19834   0.19882
 Alpha virt. eigenvalues --    0.20818   0.21493   0.22183   0.22582   0.23346
 Alpha virt. eigenvalues --    0.24243   0.25039   0.25653   0.26136   0.27485
 Alpha virt. eigenvalues --    0.28012   0.28576   0.29561   0.30129   0.43175
 Alpha virt. eigenvalues --    0.49254   0.64980   0.66059   0.66251   0.66602
 Alpha virt. eigenvalues --    0.69107   0.69522   0.69694   0.71692   0.74209
 Alpha virt. eigenvalues --    0.75491   0.75986   0.77019   0.77588   0.77783
 Alpha virt. eigenvalues --    0.80214   0.81503   0.83314   0.86438   0.87283
 Alpha virt. eigenvalues --    0.90523   0.92514   0.94991   0.95541   0.96313
 Alpha virt. eigenvalues --    0.97629   0.99191   0.99820   1.02657   1.04131
 Alpha virt. eigenvalues --    1.06066   1.06743   1.07444   1.08609   1.08874
 Alpha virt. eigenvalues --    1.09981   1.10454   1.11406   1.12368   1.12600
 Alpha virt. eigenvalues --    1.14105   1.16464   1.16904   1.18400   1.22692
 Alpha virt. eigenvalues --    1.28951   1.44978   1.53623   1.56394   1.58284
 Alpha virt. eigenvalues --    1.61005   1.63573   1.65245   1.71812   1.72648
 Alpha virt. eigenvalues --    1.73973   1.77325   1.80912   1.83761   1.96264
 Alpha virt. eigenvalues --    1.98999   1.99230   2.12276   2.14041   2.29558
 Alpha virt. eigenvalues --    2.35158   2.84558   3.09933   3.31694   3.41085
          Condensed to atoms (all electrons):
              1          2          3          4          5          6
     1  C    5.284356   0.248925   0.289730   0.249275   0.197064  -0.050406
     2  C    0.248925   5.475612  -0.081814  -0.084818  -0.036140  -0.008007
     3  C    0.289730  -0.081814   5.352957  -0.081974  -0.038992   0.003845
     4  C    0.249275  -0.084818  -0.081974   5.475192  -0.036127  -0.007941
     5  O    0.197064  -0.036140  -0.038992  -0.036127   8.327290   0.230717
     6  C   -0.050406  -0.008007   0.003845  -0.007941   0.230717   4.283213
     7  O    0.001296  -0.009687   0.000063  -0.009774  -0.045499   0.469816
     8  N    0.002778  -0.000295  -0.000044  -0.000285  -0.078498   0.197536
     9  C   -0.000073   0.000004   0.000001   0.000004   0.001567  -0.048951
    10  C    0.000001   0.000000   0.000000   0.000000  -0.000027   0.006384
    11  C   -0.000004   0.000000   0.000000   0.000000   0.000271   0.003277
    12  C   -0.000085   0.000029  -0.000046   0.000016   0.008924  -0.028894
    13  O    0.000000   0.000000   0.000000   0.000000   0.000000  -0.000005
    14  H    0.000000   0.000000   0.000000   0.000000   0.000000   0.000001
    15  H   -0.035692   0.340193  -0.000421   0.000857   0.001572   0.000338
    16  H   -0.036494   0.342843   0.003585  -0.004082  -0.003620   0.001930
    17  H   -0.040251   0.358105  -0.003155   0.004351   0.001042   0.000479
    18  H   -0.044668   0.001196   0.350369   0.001204   0.001903  -0.000039
    19  H   -0.038399  -0.003603   0.360312   0.004539   0.001953  -0.000005
    20  H   -0.038300   0.004529   0.360567  -0.003530   0.001998  -0.000005
    21  H   -0.035817   0.000853  -0.000414   0.340046   0.001574   0.000335
    22  H   -0.040177   0.004342  -0.003136   0.358357   0.001047   0.000461
    23  H   -0.036566  -0.004030   0.003574   0.342661  -0.003632   0.001935
    24  H    0.000001   0.000001   0.000000  -0.000002   0.000040   0.000152
    25  H    0.000002  -0.000001   0.000000   0.000000  -0.000003  -0.001533
    26  H    0.000000   0.000000   0.000000   0.000000   0.000000  -0.000043
    27  H    0.000000   0.000000   0.000000   0.000000   0.000000  -0.000140
    28  H    0.000000   0.000000   0.000000   0.000000   0.000002  -0.000171
    29  H   -0.000002   0.000001   0.000001  -0.000003   0.000618  -0.001982
    30  H   -0.000075  -0.000015   0.000032   0.000014   0.005430  -0.001505
              7          8          9         10         11         12
     1  C    0.001296   0.002778  -0.000073   0.000001  -0.000004  -0.000085
     2  C   -0.009687  -0.000295   0.000004   0.000000   0.000000   0.000029
     3  C    0.000063  -0.000044   0.000001   0.000000   0.000000  -0.000046
     4  C   -0.009774  -0.000285   0.000004   0.000000   0.000000   0.000016
     5  O   -0.045499  -0.078498   0.001567  -0.000027   0.000271   0.008924
     6  C    0.469816   0.197536  -0.048951   0.006384   0.003277  -0.028894
     7  O    8.144630  -0.070727   0.004746   0.000191  -0.000027   0.001131
     8  N   -0.070727   7.428325   0.241139  -0.050567  -0.051035   0.215025
     9  C    0.004746   0.241139   5.217116   0.202281  -0.069691  -0.065289
    10  C    0.000191  -0.050567   0.202281   5.669182   0.184670  -0.110425
    11  C   -0.000027  -0.051035  -0.069691   0.184670   5.286274   0.223012
    12  C    0.001131   0.215025  -0.065289  -0.110425   0.223012   5.269744
    13  O    0.000000   0.000521   0.001834  -0.044520   0.271478  -0.042646
    14  H    0.000000  -0.000081  -0.000038  -0.000805  -0.045319   0.006482
    15  H    0.000083   0.000001   0.000000   0.000000   0.000000   0.000000
    16  H    0.023881   0.000141   0.000002   0.000000   0.000000  -0.000008
    17  H    0.000033  -0.000006   0.000000   0.000000   0.000000  -0.000003
    18  H    0.000002   0.000000   0.000000   0.000000   0.000000   0.000001
    19  H    0.000001  -0.000005   0.000000   0.000000   0.000000  -0.000003
    20  H    0.000001  -0.000006   0.000000   0.000000   0.000000   0.000027
    21  H    0.000085   0.000001   0.000000   0.000000   0.000000   0.000000
    22  H    0.000036  -0.000008   0.000000   0.000000   0.000000   0.000004
    23  H    0.024048   0.000145   0.000001   0.000000   0.000000  -0.000010
    24  H    0.004553  -0.038837   0.368056  -0.026705   0.003428   0.001930
    25  H    0.000769  -0.042614   0.366727  -0.043166  -0.001379   0.002491
    26  H    0.000000   0.002207  -0.032757   0.372092  -0.031058   0.004306
    27  H    0.000001   0.001685  -0.032337   0.346757  -0.042617  -0.002136
    28  H    0.000000   0.002651   0.007781  -0.072333   0.336862  -0.050946
    29  H    0.000009  -0.037397   0.003899  -0.004778  -0.046493   0.346940
    30  H    0.000023  -0.036046   0.002309   0.004638  -0.028529   0.368326
             13         14         15         16         17         18
     1  C    0.000000   0.000000  -0.035692  -0.036494  -0.040251  -0.044668
     2  C    0.000000   0.000000   0.340193   0.342843   0.358105   0.001196
     3  C    0.000000   0.000000  -0.000421   0.003585  -0.003155   0.350369
     4  C    0.000000   0.000000   0.000857  -0.004082   0.004351   0.001204
     5  O    0.000000   0.000000   0.001572  -0.003620   0.001042   0.001903
     6  C   -0.000005   0.000001   0.000338   0.001930   0.000479  -0.000039
     7  O    0.000000   0.000000   0.000083   0.023881   0.000033   0.000002
     8  N    0.000521  -0.000081   0.000001   0.000141  -0.000006   0.000000
     9  C    0.001834  -0.000038   0.000000   0.000002   0.000000   0.000000
    10  C   -0.044520  -0.000805   0.000000   0.000000   0.000000   0.000000
    11  C    0.271478  -0.045319   0.000000   0.000000   0.000000   0.000000
    12  C   -0.042646   0.006482   0.000000  -0.000008  -0.000003   0.000001
    13  O    8.136236   0.245630   0.000000   0.000000   0.000000   0.000000
    14  H    0.245630   0.460429   0.000000   0.000000   0.000000   0.000000
    15  H    0.000000   0.000000   0.554358  -0.020780  -0.024745   0.001646
    16  H    0.000000   0.000000  -0.020780   0.484404  -0.023429   0.000010
    17  H    0.000000   0.000000  -0.024745  -0.023429   0.536406   0.000124
    18  H    0.000000   0.000000   0.001646   0.000010   0.000124   0.550210
    19  H    0.000000   0.000000   0.000159  -0.000046   0.003778  -0.023991
    20  H    0.000000   0.000000  -0.000082  -0.000085  -0.000048  -0.023851
    21  H    0.000000   0.000000   0.001178   0.000224  -0.000069   0.001650
    22  H    0.000000   0.000000  -0.000069   0.000009  -0.000098   0.000124
    23  H    0.000000   0.000000   0.000215   0.002910   0.000009   0.000012
    24  H   -0.000012   0.000000   0.000000  -0.000004   0.000000   0.000000
    25  H   -0.000014   0.000000   0.000000   0.000004   0.000000   0.000000
    26  H    0.000583   0.001022   0.000000   0.000000   0.000000   0.000000
    27  H    0.004135  -0.000427   0.000000   0.000000   0.000000   0.000000
    28  H   -0.034040  -0.004523   0.000000   0.000000   0.000000   0.000000
    29  H    0.006675  -0.000270   0.000000   0.000000   0.000000   0.000000
    30  H    0.001092  -0.000128   0.000000   0.000003   0.000020   0.000000
             19         20         21         22         23         24
     1  C   -0.038399  -0.038300  -0.035817  -0.040177  -0.036566   0.000001
     2  C   -0.003603   0.004529   0.000853   0.004342  -0.004030   0.000001
     3  C    0.360312   0.360567  -0.000414  -0.003136   0.003574   0.000000
     4  C    0.004539  -0.003530   0.340046   0.358357   0.342661  -0.000002
     5  O    0.001953   0.001998   0.001574   0.001047  -0.003632   0.000040
     6  C   -0.000005  -0.000005   0.000335   0.000461   0.001935   0.000152
     7  O    0.000001   0.000001   0.000085   0.000036   0.024048   0.004553
     8  N   -0.000005  -0.000006   0.000001  -0.000008   0.000145  -0.038837
     9  C    0.000000   0.000000   0.000000   0.000000   0.000001   0.368056
    10  C    0.000000   0.000000   0.000000   0.000000   0.000000  -0.026705
    11  C    0.000000   0.000000   0.000000   0.000000   0.000000   0.003428
    12  C   -0.000003   0.000027   0.000000   0.000004  -0.000010   0.001930
    13  O    0.000000   0.000000   0.000000   0.000000   0.000000  -0.000012
    14  H    0.000000   0.000000   0.000000   0.000000   0.000000   0.000000
    15  H    0.000159  -0.000082   0.001178  -0.000069   0.000215   0.000000
    16  H   -0.000046  -0.000085   0.000224   0.000009   0.002910  -0.000004
    17  H    0.003778  -0.000048  -0.000069  -0.000098   0.000009   0.000000
    18  H   -0.023991  -0.023851   0.001650   0.000124   0.000012   0.000000
    19  H    0.525483  -0.025851  -0.000083  -0.000048  -0.000085   0.000000
    20  H   -0.025851   0.522589   0.000155   0.003737  -0.000046   0.000000
    21  H   -0.000083   0.000155   0.554978  -0.024680  -0.020770   0.000000
    22  H   -0.000048   0.003737  -0.024680   0.534382  -0.023275   0.000000
    23  H   -0.000085  -0.000046  -0.020770  -0.023275   0.484309   0.000010
    24  H    0.000000   0.000000   0.000000   0.000000   0.000010   0.503869
    25  H    0.000000   0.000000   0.000000   0.000000  -0.000001  -0.038528
    26  H    0.000000   0.000000   0.000000   0.000000   0.000000   0.000472
    27  H    0.000000   0.000000   0.000000   0.000000   0.000000  -0.004738
    28  H    0.000000   0.000000   0.000000   0.000000   0.000000  -0.000072
    29  H   -0.000004   0.000017   0.000000   0.000005   0.000003   0.000239
    30  H    0.000125  -0.000014   0.000000  -0.000001  -0.000001  -0.000114
             25         26         27         28         29         30
     1  C    0.000002   0.000000   0.000000   0.000000  -0.000002  -0.000075
     2  C   -0.000001   0.000000   0.000000   0.000000   0.000001  -0.000015
     3  C    0.000000   0.000000   0.000000   0.000000   0.000001   0.000032
     4  C    0.000000   0.000000   0.000000   0.000000  -0.000003   0.000014
     5  O   -0.000003   0.000000   0.000000   0.000002   0.000618   0.005430
     6  C   -0.001533  -0.000043  -0.000140  -0.000171  -0.001982  -0.001505
     7  O    0.000769   0.000000   0.000001   0.000000   0.000009   0.000023
     8  N   -0.042614   0.002207   0.001685   0.002651  -0.037397  -0.036046
     9  C    0.366727  -0.032757  -0.032337   0.007781   0.003899   0.002309
    10  C   -0.043166   0.372092   0.346757  -0.072333  -0.004778   0.004638
    11  C   -0.001379  -0.031058  -0.042617   0.336862  -0.046493  -0.028529
    12  C    0.002491   0.004306  -0.002136  -0.050946   0.346940   0.368326
    13  O   -0.000014   0.000583   0.004135  -0.034040   0.006675   0.001092
    14  H    0.000000   0.001022  -0.000427  -0.004523  -0.000270  -0.000128
    15  H    0.000000   0.000000   0.000000   0.000000   0.000000   0.000000
    16  H    0.000004   0.000000   0.000000   0.000000   0.000000   0.000003
    17  H    0.000000   0.000000   0.000000   0.000000   0.000000   0.000020
    18  H    0.000000   0.000000   0.000000   0.000000   0.000000   0.000000
    19  H    0.000000   0.000000   0.000000   0.000000  -0.000004   0.000125
    20  H    0.000000   0.000000   0.000000   0.000000   0.000017  -0.000014
    21  H    0.000000   0.000000   0.000000   0.000000   0.000000   0.000000
    22  H    0.000000   0.000000   0.000000   0.000000   0.000005  -0.000001
    23  H   -0.000001   0.000000   0.000000   0.000000   0.000003  -0.000001
    24  H   -0.038528   0.000472  -0.004738  -0.000072   0.000239  -0.000114
    25  H    0.545073  -0.001786   0.003101   0.000942  -0.000211   0.000179
    26  H   -0.001786   0.522033  -0.025182  -0.004241  -0.000147  -0.000052
    27  H    0.003101  -0.025182   0.524990   0.005128   0.002367  -0.000035
    28  H    0.000942  -0.004241   0.005128   0.626452   0.004967  -0.004853
    29  H   -0.000211  -0.000147   0.002367   0.004967   0.535392  -0.034676
    30  H    0.000179  -0.000052  -0.000035  -0.004853  -0.034676   0.501466
 Mulliken charges:
              1
     1  C    0.123582
     2  C   -0.548226
     3  C   -0.515042
     4  C   -0.547982
     5  O   -0.540476
     6  C    0.949210
     7  O   -0.539687
     8  N   -0.685705
     9  C   -0.168333
    10  C   -0.432869
    11  C    0.006880
    12  C   -0.147897
    13  O   -0.546949
    14  H    0.338028
    15  H    0.181190
    16  H    0.228603
    17  H    0.187457
    18  H    0.184098
    19  H    0.195772
    20  H    0.198199
    21  H    0.180756
    22  H    0.188990
    23  H    0.228585
    24  H    0.226261
    25  H    0.209948
    26  H    0.192551
    27  H    0.219446
    28  H    0.186394
    29  H    0.224832
    30  H    0.222385
 Sum of Mulliken charges =   0.00000
 Mulliken charges with hydrogens summed into heavy atoms:
              1
     1  C    0.123582
     2  C    0.049025
     3  C    0.063026
     4  C    0.050349
     5  O   -0.540476
     6  C    0.949210
     7  O   -0.539687
     8  N   -0.685705
     9  C    0.267877
    10  C   -0.020872
    11  C    0.193274
    12  C    0.299320
    13  O   -0.208921
 Sum of Mulliken charges with hydrogens summed into heavy atoms =   0.00000
 APT charges:
              1
     1  C    0.652878
     2  C   -0.107884
     3  C   -0.028105
     4  C   -0.107995
     5  O   -0.965390
     6  C    1.441187
     7  O   -0.790315
     8  N   -0.867193
     9  C    0.361498
    10  C   -0.045724
    11  C    0.490066
    12  C    0.284304
    13  O   -0.509898
    14  H    0.208390
    15  H   -0.001582
    16  H    0.080151
    17  H    0.000408
    18  H   -0.002380
    19  H    0.008075
    20  H    0.009753
    21  H   -0.001774
    22  H    0.001661
    23  H    0.080258
    24  H   -0.010297
    25  H   -0.058714
    26  H   -0.012885
    27  H    0.001832
    28  H   -0.089924
    29  H   -0.020164
    30  H   -0.000235
 Sum of APT charges =   0.00000
 APT charges with hydrogens summed into heavy atoms:
              1
     1  C    0.652878
     2  C   -0.028908
     3  C   -0.012658
     4  C   -0.027851
     5  O   -0.965390
     6  C    1.441187
     7  O   -0.790315
     8  N   -0.867193
     9  C    0.292487
    10  C   -0.056777
    11  C    0.400142
    12  C    0.263906
    13  O   -0.301508
 Sum of APT charges with hydrogens summed into heavy atoms =   0.00000
 Electronic spatial extent (au):  <R**2>=           3228.1783
 Charge=              0.0000 electrons
 Dipole moment (field-independent basis, Debye):
    X=             -2.3658    Y=              0.7857    Z=             -0.8711  Tot=              2.6406
 Quadrupole moment (field-independent basis, Debye-Ang):
   XX=            -61.3843   YY=            -86.0956   ZZ=            -78.1379
   XY=              6.5391   XZ=              3.7672   YZ=             -1.5954
 Traceless Quadrupole moment (field-independent basis, Debye-Ang):
   XX=             13.8216   YY=            -10.8897   ZZ=             -2.9320
   XY=              6.5391   XZ=              3.7672   YZ=             -1.5954
 Octapole moment (field-independent basis, Debye-Ang**2):
  XXX=            -70.9839  YYY=              5.2724  ZZZ=              0.7890  XYY=             -6.1435
  XXY=              1.8786  XXZ=            -14.5630  XZZ=             -5.2488  YZZ=              0.7754
  YYZ=             -1.8187  XYZ=              5.1568
 Hexadecapole moment (field-independent basis, Debye-Ang**3):
 XXXX=          -2666.9374 YYYY=           -745.3344 ZZZZ=           -284.7772 XXXY=            -69.1789
 XXXZ=             60.0931 YYYX=              6.6596 YYYZ=             -3.5322 ZZZX=             -3.1705
 ZZZY=              1.0634 XXYY=           -664.5554 XXZZ=           -585.7416 YYZZ=           -161.1045
 XXYZ=            -18.5781 YYXZ=              8.1428 ZZXY=             -7.3002
 N-N= 8.715308215056D+02 E-N=-3.212755016180D+03  KE= 6.248489343518D+02
  Exact polarizability: 132.760   0.119  97.421   0.795   0.968  81.511
 Approx polarizability: 155.114  -7.677 147.574   1.046   3.303 112.311
 Calculating spin-rotation constants.
 Leave Link  601 at Wed Oct 19 22:56:23 2011, MaxMem=  128000000 cpu:      32.0
 (Enter /home/foresman/gdv/l701.exe)
 Compute integral second derivatives.
 ... and contract with generalized density number  0.
 Leave Link  701 at Wed Oct 19 22:56:24 2011, MaxMem=  128000000 cpu:       1.3
 (Enter /home/foresman/gdv/l702.exe)
 L702 exits ... SP integral derivatives will be done elsewhere.
 Leave Link  702 at Wed Oct 19 22:56:24 2011, MaxMem=  128000000 cpu:       0.3
 (Enter /home/foresman/gdv/l703.exe)
 Compute integral second derivatives, UseDBF=F ICtDFT=           0.
 Integral derivatives from FoFJK, PRISM(SPDF).
 Calling FoFJK, ICntrl=    100127 FMM=F ISym2X=0 I1Cent= 0 IOpClX= 0 NMat=1 NMatS=1 NMatT=0.
 FoFJK:  IHMeth= 1 ICntrl=  100127 DoSepK=F KAlg= 0 I1Cent=   0 FoldK=F
 IRaf=       0 NMat=   1 IRICut=       1 DoRegI=T DoRafI=F ISym2E= 0.
 FoFCou: FMM=F IPFlag=           0 FMFlag=      100000 FMFlg1=         800
         NFxFlg=           0 DoJE=F BraDBF=F KetDBF=F FulRan=T
         wScrn=  0.000000 ICntrl=  100127 IOpCl=  0 I1Cent=           0 NGrid=           0
         NMat0=    1 NMatS0=      1 NMatT0=    0 NMatD0=    1 NMtDS0=    0 NMtDT0=    0
 Symmetry not used in FoFCou.
 Leave Link  703 at Wed Oct 19 22:56:57 2011, MaxMem=  128000000 cpu:     267.6
 (Enter /home/foresman/gdv/l716.exe)
 Dipole        =-9.30759843D-01 3.09101313D-01-3.42725577D-01
 Polarizability= 1.32760122D+02 1.18867868D-01 9.74212901D+01
                 7.95317453D-01 9.68009770D-01 8.15108411D+01
 AAT           = 1.08936243D-03-8.66184284D-03-1.16707112D-01
                -2.36032046D-03-4.77439714D-03 3.66707167D-01
                 1.17313823D-01-3.45874448D-01 1.94839935D-03
                -5.51985080D-02 1.50408631D-01-1.37700853D-01
                -1.62970494D-01 1.23061561D-01-2.18145244D-01
                 2.01146594D-02 2.07632959D-01-8.15319784D-02
                -5.71187662D-04-1.13830406D-03 1.88640826D-01
                -5.23119794D-06 2.55586264D-03-1.71344232D-01
                -1.11569090D-01 1.07365956D-02-3.39560101D-03
                 5.90021699D-02-1.53420996D-01-1.37884408D-01
                 1.68282607D-01-1.21974254D-01-2.14600178D-01
                 2.23501848D-02 2.04884432D-01 7.55013821D-02
                 1.88438674D-03 1.72292208D-02 2.47370482D-01
                -4.36052321D-03-1.36653114D-03-2.64076282D-01
                -5.75929083D-01 3.43698650D-01 3.98132289D-03
                -3.66868027D-02-4.01651355D-02 9.84669835D-01
                 2.19271114D-02 1.04044982D-02-1.63641645D-01
                -2.61591488D-01-9.43848300D-02 4.55084111D-02
                 9.30396003D-05 5.48709686D-03-1.19395948D+00
                -1.97287021D-02-2.33924115D-02 3.34995625D-02
                 1.07454515D+00 3.95040562D-01 1.24711304D-02
                 3.23617410D-02 3.32467441D-02-5.17767585D-01
                -1.89576754D-02-5.55639666D-02 3.98346459D-01
                 7.85060137D-02-4.24578422D-01 3.03677737D-02
                -2.56371897D-02 7.63886929D-02 1.12271245D-01
                -6.78396370D-02 3.07258042D-02-1.62045664D-01
                -9.11064526D-03 2.08227642D-01-1.08845982D-01
                -1.67900116D-02 6.37325978D-03-1.07885911D-01
                 2.35303114D-02 1.25404643D-01 3.79628170D-01
                 1.10017340D-01-9.09716004D-02-8.55450953D-02
                -8.12063048D-02-1.05132797D-01-6.93758691D-02
                -1.64575694D-02 3.31355324D-03-7.70411971D-01
                 1.50959053D-01 5.51030221D-01 1.68912612D-01
                -2.76035394D-02-8.84128428D-02 5.04047550D-02
                 5.04331073D-02 4.86342457D-02-3.10613433D-01
                -8.40701323D-02 2.50705562D-01-2.58032885D-02
                 1.60043578D-01 2.48157323D-01 1.52423092D-02
                 1.28089164D-01 1.40539070D-01 1.33367518D+00
                -5.90821870D-01-1.00009978D+00-2.23232231D-01
                -6.89317075D-02-2.56535892D-01 1.47474893D-01
                -2.12805228D-02-1.53151726D-01-7.01946169D-01
                 2.09482273D-01 6.75298177D-01 2.43816697D-01
                -2.90497655D-03 1.27258360D-01-6.30813327D-02
                 3.89016078D-02 1.25369811D-02 2.66730476D-01
                -3.17387179D-03-2.28068818D-01-1.05444879D-02
                 5.48208404D-02-3.53595542D-02 2.60933936D-01
                -5.81397412D-02 5.01477957D-02-1.41366999D-01
                -2.08459437D-01-5.28206676D-02-1.31170627D-01
                 5.39499811D-02-4.13372289D-02-1.22279111D-02
                 9.70182229D-02-1.84810400D-01-2.72689323D-02
                 1.70033755D-01 2.39868765D-01 8.24100076D-02
                -4.62086283D-03 7.98746222D-03 1.22305433D-01
                -3.84877489D-03-4.72560053D-04 2.49292593D-01
                 8.03668058D-02-2.64962902D-01 5.08076287D-03
                -7.18883219D-02-4.01816895D-02-5.06094354D-02
                 2.02152955D-01-9.12276756D-02-7.94201295D-02
                -5.16720612D-02 1.64017932D-01 2.12576235D-01
                 7.50456859D-02 3.46455170D-02-4.24536718D-02
                -1.98318553D-01 8.94517799D-02-8.48581613D-02
                -3.98264487D-02 1.59501066D-01-2.11537156D-01
                 5.38887282D-03-1.15145066D-01-6.32478262D-02
                -4.55941738D-02-1.28719275D-02 2.64925979D-01
                -3.63950339D-03-2.30855291D-01 9.39869015D-03
                -5.76799913D-02 3.46512026D-02-1.21343566D-02
                -9.66770202D-02 1.82664182D-01-2.92785465D-02
                 1.68905269D-01 2.36662002D-01-7.59383236D-02
                -5.86570158D-02 3.29742967D-02 2.55197625D-01
                 6.18927330D-02-4.94276379D-02-1.38520592D-01
                -2.15761839D-01-5.32571023D-02 1.32248278D-01
                 6.70554933D-02 1.07889123D-01 8.60104803D-02
                -1.74924146D-01 2.97940722D-02 4.80284178D-02
                 8.40789084D-03-5.74930030D-02-1.40545969D-01
                -2.18473896D-02-1.28402847D-01 4.33433266D-02
                 1.94913805D-01-1.61690770D-02-4.05392699D-02
                 1.30080360D-01-1.20218984D-01 1.00069199D-01
                 4.07231986D-02-1.71942404D-01 1.48568678D-01
                 8.79889304D-02-5.38380500D-02-1.57290638D-01
                -4.81620968D-02 1.31481637D-01 2.85295213D-02
                -7.26135028D-05 1.89327006D-01-2.79650235D-02
                -1.84659912D-01-8.62665269D-02-6.73305284D-02
[...]
 0,0.00020021,-0.00007771,-0.00002479,0.00000192,-0.00000593,-0.0000440
 9,-0.00003260,-0.00003990,-0.00000873,0.00001548,0.00001267,0.00000649
 ,-0.00001177,0.00000095,-0.00000945,0.00001540,0.00000335,-0.00000646,
 0.00000391,-0.00000727,-0.00002197,-0.00000430,0.00004207,0.00001083,0
 .00000043,-0.00000033,0.00000645,-0.00001950,-0.00000551,-0.01195195,0
 .05303159,0.00001611,-0.00010776,-0.00004696,0.00001126,-0.00000756,-0
 .00000443,0.00000451,0.00000234,-0.00000152,0.00001791,0.00003448,-0.0
 0001211,-0.00049528,0.00000297,-0.00037928,0.00151085,0.00024528,0.001
 13283,-0.00122524,0.00079304,-0.00078620,-0.00819299,0.00031481,0.0101
 1130,0.13508697,-0.00858398,-0.18551184,-0.00439894,-0.00017132,0.0020
 9270,-0.00124941,-0.00010381,0.00038324,-0.00110233,0.00069063,-0.0005
 2655,-0.00036025,-0.00012470,0.00000888,0.00000770,0.00000062,-0.00001
 968,0.00000046,-0.00000156,0.00000200,0.00001257,0.00001331,-0.0000059
 7,-0.00000909,0.00000550,0.00000061,-0.00000012,0.00000341,0.00000115,
 -0.00000200,-0.00000157,0.00000020,-0.00000007,0.00000013,0.00000198,0
 .00000070,0.00000303,-0.00001207,-0.00001253,0.00000363,-0.00000439,-0
 .00000867,0.00000119,0.00002068,-0.14189875,0.00717052,0.19562979,-0.0
 0002446,-0.00052083,0.00030121,0.00005545,0.00014623,-0.00005094,0.000
 03360,0.00006596,-0.00002187,0.00003432,0.00008765,-0.00001439,-0.0006
 0453,0.00126595,-0.00013933,-0.00189514,-0.00401415,0.00028769,0.00158
 513,0.00118720,-0.00048606,-0.01332853,0.00946960,-0.01843353,-0.09142
 442,-0.01590789,-0.08790124,-0.00715910,-0.00336902,-0.01755866,0.0008
 1386,0.00037132,-0.00125859,0.00024384,0.00077331,-0.00176316,-0.00035
 203,0.00000141,0.00060813,0.00001040,-0.00013764,-0.00008156,0.0000084
 6,0.00005219,0.00003896,-0.00002715,-0.00008642,-0.00005272,-0.0000319
 6,0.00000133,0.00000520,-0.00002117,0.00003152,-0.00000987,0.00000258,
 -0.00001392,0.00000342,0.00000745,-0.00001955,0.00001153,0.00000166,0.
 00003324,-0.00003691,-0.00002185,-0.00000958,0.00000723,-0.00003848,-0
 .00006922,0.00009091,0.01101632,0.00276920,0.02295006,0.10288070,0.000
 11132,0.00057721,-0.00049416,-0.00003520,-0.00021387,0.00005961,-0.000
 04421,-0.00009746,0.00002085,-0.00000635,-0.00005391,-0.00001512,0.000
 68665,-0.00203729,-0.00024776,0.00522629,0.00553483,0.00070680,-0.0027
 9911,0.00035720,-0.00080033,0.01960070,-0.00864650,0.02763089,-0.01595
 153,-0.04989647,-0.03072460,-0.01104001,-0.00568273,-0.02689195,0.0008
 9683,-0.00042264,-0.00052823,-0.00155114,-0.00152607,0.00191581,-0.000
 79308,0.00024575,0.00042661,0.00013501,0.00001607,-0.00014542,-0.00002
 712,-0.00006144,-0.00005814,0.00002235,0.00004174,0.00005258,0.0000329
 4,0.00000116,-0.00000283,0.00002992,-0.00003618,0.00001648,-0.00000828
 ,0.00001637,-0.00000123,-0.00001309,0.00002383,-0.00001212,-0.00001704
 ,-0.00002705,0.00002710,0.00000713,0.00001481,-0.00002129,-0.00000078,
 0.00003828,-0.00002077,-0.00138154,0.00130764,-0.00067836,0.00959349,0
 .06209425,-0.00004594,-0.00035531,0.00006929,0.00000925,0.00008178,-0.
 00001637,0.00001893,0.00005000,-0.00000349,0.00000406,0.00006486,-0.00
 000023,-0.00003955,0.00082005,-0.00036986,-0.00294879,-0.00266286,0.00
 013849,0.00187622,-0.00020636,0.00052898,-0.00515065,0.00798945,0.0023
 8048,-0.08789540,-0.02944948,-0.26266600,0.00145396,-0.00027350,0.0010
 0453,-0.00019180,0.00038155,0.00000049,0.00092546,-0.00006946,-0.00140
 913,-0.00000194,-0.00007880,0.00009200,0.00001722,-0.00004908,-0.00002
 057,0.00001483,0.00002129,0.00002679,-0.00000552,-0.00003317,-0.000042
 58,-0.00002465,0.00000353,0.00000702,-0.00001371,0.00002184,-0.0000058
 5,-0.00000281,-0.00001218,0.00000297,0.00001697,-0.00001447,0.00001488
 ,0.00000624,0.00003044,-0.00002197,0.00000849,-0.00001537,0.00002688,-
 0.00002527,-0.00005497,0.00002074,-0.00973487,-0.00443653,-0.02348760,
 0.10228956,0.02889703,0.28131764,0.00012252,0.00004617,0.00001008,0.00
 000160,0.00000006,0.00000670,-0.00002110,-0.00004257,0.00001361,0.0000
 0113,-0.00000390,-0.00000364,0.00014959,-0.00042323,0.00011828,0.00085
 449,-0.00021832,-0.00024502,0.00010387,-0.00000723,-0.00000247,-0.0030
 3583,-0.00419650,0.00051616,0.00772396,-0.01698228,0.01339273,-0.07356
 993,0.06206751,-0.04840687,-0.00755606,0.02475995,-0.01948543,-0.00492
 172,0.00143403,0.00284957,0.00030206,-0.00135457,0.00080590,-0.0005339
 5,-0.00058508,0.00004262,0.00000048,-0.00000126,-0.00000228,0.00000396
 ,0.00001245,0.00000336,0.00000010,-0.00000343,-0.00000541,0.00002069,-
 0.00000155,-0.00000079,0.00000319,-0.00000959,-0.00001014,0.00000013,-
 0.00000269,0.00001102,-0.00000082,-0.00000091,0.00000257,-0.00000080,0
 .00000012,0.00000339,0.00000433,0.00000826,-0.00000672,-0.00050510,0.0
 0001449,0.00028796,0.00122884,0.00090661,-0.00031109,0.07923647,0.0000
 8696,0.00042874,-0.00005683,-0.00002122,-0.00007463,0.00002272,-0.0000
 3026,-0.00007572,0.00001650,-0.00002556,-0.00009771,0.00001611,0.00013
 073,-0.00113978,0.00033343,0.00134423,0.00079514,-0.00054462,-0.000465
 90,-0.00027438,0.00006735,-0.00233207,-0.00428133,0.00049899,0.0100530
 0,-0.01580661,0.01331577,0.06044448,-0.19972275,0.11545281,0.00053110,
 -0.00825090,0.00634195,0.00057875,-0.00088187,-0.00122219,0.00101295,0
 .00080954,-0.00025252,0.00033168,0.00007160,0.00019100,-0.00000775,-0.
 00003512,-0.00001279,0.00001820,0.00005378,0.00002271,0.00001150,0.000
 01075,0.00000099,0.00002125,-0.00002896,0.00000841,-0.00000450,0.00001
 776,-0.00000165,-0.00000626,0.00001510,-0.00000761,-0.00001072,-0.0000
 2601,0.00003276,0.00000832,0.00000978,-0.00000797,0.00002325,0.0000379
 3,-0.00004116,-0.00057944,-0.00053100,0.00010139,0.00031057,0.00089817
 ,-0.00080368,-0.06768134,0.21876313,-0.00001203,-0.00011927,-0.0000003
 0,0.00000397,0.00000591,0.00000596,-0.00000162,0.00000457,-0.00000285,
 0.00000438,0.00001377,-0.00001207,-0.00011413,-0.00000453,0.00001133,0
 .00012199,-0.00054489,0.00023191,0.00006097,0.00012458,-0.00003192,0.0
 0072629,-0.00113539,0.00097883,-0.00033498,-0.00232053,-0.00088813,-0.
 04807975,0.11789354,-0.14054743,0.00462713,-0.01057907,0.00605412,0.00
 209975,-0.00176148,-0.00007963,-0.00116518,-0.00021001,0.00002980,-0.0
 0035371,0.00035580,0.00011011,-0.00000238,0.00000642,-0.00000322,-0.00
 000813,-0.00001965,-0.00000605,0.00000034,-0.00000334,0.00000071,-0.00
 000008,0.00000379,-0.00000010,0.00000085,-0.00000162,0.00000269,0.0000
 0362,-0.00000348,0.00000057,-0.00000128,0.00000994,-0.00000086,0.00000
 302,-0.00000617,0.00000716,-0.00001247,-0.00001563,0.00001261,0.000066
 50,0.00024080,-0.00006421,0.00029275,-0.00009028,0.00086427,0.05238569
 ,-0.12702831,0.14913362,0.00002735,0.00007846,-0.00004131,-0.00000891,
 -0.00001172,0.00000860,-0.00000615,-0.00001319,0.00000900,-0.00000762,
 -0.00001465,0.00000819,0.00007462,-0.00019211,0.00007659,0.00000472,0.
 00011513,-0.00017376,0.00005747,-0.00001013,0.00016170,0.00011293,0.00
 064308,0.00040900,-0.00671488,-0.00932320,-0.02455978,-0.04925728,-0.0
 0833195,-0.03182970,-0.00085156,0.01275370,0.03409287,0.00079821,-0.00
 151341,0.00034680,0.00509184,-0.00127866,-0.00215303,-0.00042091,-0.00
 013439,0.00027906,0.00000005,-0.00000855,-0.00000025,0.00000487,0.0000
 1046,-0.00000430,-0.00000309,0.00000524,0.00000363,0.00000362,-0.00000
 624,0.00000080,-0.00000338,0.00000379,0.00000165,0.00000203,0.00000303
 ,-0.00000207,-0.00000065,-0.00000276,0.00000630,0.00000981,-0.00000115
 ,0.00000341,0.00000335,0.00000400,-0.00001876,0.00061899,0.00093695,-0
 .00021838,-0.00170893,-0.00417417,0.00045174,-0.00139302,-0.00364442,-
 0.00962288,0.05910536,0.00002323,-0.00002010,-0.00004140,-0.00000252,-
 0.00000007,0.00000610,-0.00000708,-0.00001003,0.00000035,-0.00000686,0
 .00000209,-0.00000646,0.00004236,-0.00005980,0.00007026,-0.00033806,-0
 .00029251,0.00004581,0.00027345,-0.00003771,0.00009207,-0.00036081,0.0
 0093946,0.00088715,-0.00436536,-0.00894455,-0.02508139,-0.00708256,-0.
 07783813,-0.07359755,-0.00135035,-0.00491991,-0.01369743,-0.00040158,0
 .00048462,-0.00121018,-0.00152507,0.00014021,0.00151551,-0.00009827,0.
 00008289,0.00039960,0.00000150,-0.00000232,0.00000257,0.00000517,0.000
 00232,-0.00000680,-0.00000666,0.00000502,0.00000502,0.00000513,0.00000
 154,0.00000101,-0.00000340,-0.00000069,0.00000117,0.00000790,-0.000003
 54,0.00000717,0.00000184,0.00000816,0.00000413,0.00001109,-0.00000798,
 0.00001695,-0.00000500,-0.00000611,-0.00001002,0.00052958,0.00144456,0
 .00028834,-0.00191620,-0.00309444,0.00013564,0.00254583,0.00948381,0.0
 2580356,0.01153867,0.08345597,0.00000804,0.00006556,-0.00002399,-0.000
 00131,-0.00001244,0.00000378,-0.00000379,-0.00001075,0.00000055,-0.000
 00581,-0.00001415,0.00000336,0.00004494,-0.00015765,0.00007631,0.00014
 592,0.00004121,-0.00022212,-0.00004016,-0.00003363,0.00003008,0.000393
 27,-0.00055801,0.00061478,0.00013821,0.00167457,0.00126623,-0.03188440
 ,-0.07454643,-0.28499322,-0.00020499,-0.00507762,-0.01587148,-0.000360
 02,0.00021650,0.00015031,-0.00179911,0.00196251,0.00255755,0.00043137,
 -0.00024009,-0.00050684,-0.00000143,-0.00000738,0.00000019,0.00000549,
 0.00000857,-0.00000024,-0.00000276,0.00000541,0.00000307,0.00000283,-0
 .00000476,0.00000159,-0.00000331,0.00000344,0.00000037,0.00000097,0.00
 000259,0.00000132,-0.00000154,-0.00000348,0.00000528,0.00000365,0.0000
 0130,0.00000295,0.00000252,0.00000567,-0.00000911,-0.00030170,-0.00015
 908,0.00122692,0.00046816,0.00051362,0.00129930,-0.00133284,-0.0064190
 5,-0.01732941,0.03195634,0.08429344,0.31021368,0.00000356,0.00002910,0
 .00000533,0.00000566,-0.00000250,-0.00000224,0.00000013,-0.00000694,-0
 .00000909,-0.00000099,-0.00000851,-0.00000072,-0.00001278,-0.00009067,
 0.00006168,0.00016398,-0.00013847,-0.00014125,0.00008254,0.00006482,0.
 00002695,0.00036976,0.00014910,-0.00041957,0.00159138,0.00054399,-0.00
 014348,-0.00115251,0.00624200,0.03087561,-0.05125735,-0.00052289,0.011
 29247,0.00148463,0.00153419,-0.00276900,-0.01088268,-0.01008673,-0.034
 93407,0.00127317,0.00142380,0.00044890,-0.00000197,-0.00000184,0.00000
 069,0.00000004,-0.00000062,0.00000160,0.00000026,0.00000218,0.00000157
 ,0.00000145,-0.00000126,0.00000255,-0.00000181,0.00000211,-0.00000074,
 -0.00000090,-0.00000014,0.00000481,-0.00000092,-0.00000248,0.00000245,
 -0.00000234,0.00000244,0.00000071,0.00000320,0.00000384,0.00000021,-0.
 00005467,0.00015941,-0.00030570,-0.00033674,-0.00034025,-0.00025025,0.
 00142669,-0.00029629,-0.00092345,-0.00543523,0.00172881,0.00214146,0.0
 6280991,-0.00001605,0.00011276,-0.00002018,-0.00001261,-0.00002832,0.0
 0001630,0.00000003,-0.00000336,0.00001878,0.00000048,-0.00002037,0.000
 00973,-0.00016750,-0.00006740,-0.00011748,0.00020188,-0.00002898,-0.00
 001999,-0.00027589,-0.00002356,0.00003429,0.00095532,0.00032664,-0.001
 09368,0.00048745,-0.00058423,-0.00028337,0.00428579,-0.00076768,-0.016
 89039,0.00080033,-0.05468195,-0.02075234,0.00168120,-0.00005873,0.0344
 3996,-0.00911547,-0.00442391,-0.02104474,0.00082031,0.00119153,-0.0010
 8105,-0.00000444,-0.00000763,-0.00001124,-0.00000431,0.00000473,0.0000
 0507,0.00000849,-0.00000416,-0.00000385,-0.00000473,-0.00001331,-0.000
 00295,0.00000092,0.00000822,0.00000267,-0.00001101,0.00001539,-0.00002
 199,-0.00000612,-0.00001107,0.00000376,0.00000247,0.00000637,-0.000019
 07,0.00000364,0.00000599,-0.00000638,0.00006084,0.00028852,0.00012705,
 -0.00003883,0.00030396,0.00010731,-0.00131804,0.00031612,0.00007945,0.
 00232117,-0.00047507,-0.00116583,0.00013472,0.06192272,-0.00000713,-0.
 00018171,-0.00000811,0.00002529,0.00003340,-0.00001539,0.00000910,0.00
 001823,-0.00002071,0.00000583,0.00003629,-0.00000803,0.00001378,0.0002
 9378,0.00005900,0.00007922,-0.00039466,-0.00020155,0.00025057,0.000298
 22,0.00003211,0.00037203,0.00098389,0.00079124,0.00029821,-0.00011330,
 -0.00106773,0.00018118,-0.00047810,-0.00990933,0.00905030,-0.02051177,
 -0.29372351,-0.00003200,-0.00167093,-0.01430080,-0.00813440,-0.0045632
 4,-0.00636613,-0.00011816,-0.00060042,0.00100071,0.00000144,0.00001092
 ,0.00001378,-0.00000054,-0.00002412,-0.00002074,-0.00001923,0.00000950
 ,0.00001113,-0.00000224,0.00001500,0.00000012,-0.00000633,-0.00000676,
 0.00000164,0.00001179,-0.00001190,0.00001984,0.00000453,0.00001733,-0.
 00000907,0.00000285,-0.00000725,0.00002175,-0.00001300,-0.00001745,0.0
 0001179,0.00028929,0.00024070,0.00024874,0.00058023,0.00024697,0.00023
 596,0.00006144,-0.00049241,0.00100861,0.00144260,-0.00050549,0.0007773
 2,-0.00428515,0.02532212,0.32015280,0.00008730,0.00062683,-0.00014534,
 -0.00006444,-0.00006900,0.00003975,-0.00005545,-0.00009395,0.00002299,
 -0.00009784,-0.00015979,0.00001326,0.00173026,-0.00148911,0.00064547,0
 .00039172,0.00673785,-0.00380268,-0.00197485,-0.00121870,0.00148544,-0
 .02742308,-0.00901300,-0.02559879,-0.00042370,-0.00275286,-0.00178104,
 0.00017843,-0.00051119,-0.00042943,0.00009878,0.00073249,0.00006855,-0
 .07756117,-0.00442122,-0.08240291,0.00011612,-0.00063037,0.00111979,-0
 .00027137,-0.00010109,0.00010816,0.00001308,-0.00005038,-0.00001204,0.
 00005601,0.00013138,0.00004454,0.00001141,0.00000496,-0.00000570,0.000
 03748,-0.00002196,0.00000950,0.00000349,-0.00000023,-0.00000433,0.0000
 2474,-0.00000070,0.00001213,0.00001946,-0.00003013,0.00006921,0.000040
 01,-0.00000825,0.00004465,0.00006638,0.00012084,-0.00016294,-0.0001617
 1,-0.00008821,-0.00010971,-0.00086456,0.00094794,-0.00030761,0.0000370
 7,0.00013942,0.00020169,-0.00000640,0.00060870,0.00008777,-0.00014918,
 -0.00092885,0.00031512,0.09799682,0.00007309,-0.00013700,0.00005018,0.
 00002689,0.00007769,-0.00005391,-0.00001404,-0.00004096,-0.00008961,-0
 .00004134,-0.00000966,-0.00000894,0.00103939,0.00076572,0.00053333,-0.
 00069303,0.00230548,-0.00204335,-0.00073202,-0.00058586,0.00077986,-0.
 00848442,-0.00058412,-0.00659167,0.00037802,-0.00133455,-0.00048759,-0
 .00112751,0.00119437,0.00005971,0.01032903,0.00005068,0.03319355,-0.00
 509343,-0.05471030,-0.02671526,0.00169081,0.00292657,-0.00104040,0.000
 10313,0.00072634,-0.00076222,0.00001717,0.00001037,0.00003889,0.000024
 36,0.00003832,0.00000838,-0.00001558,0.00001738,0.00001661,0.00002925,
 0.00003389,0.00002720,-0.00001873,-0.00000516,-0.00001106,0.00003306,-
 0.00004215,0.00008903,0.00002823,0.00001248,0.00000736,-0.00000026,-0.
 00000819,0.00006156,0.00002248,0.00004781,-0.00005192,-0.00004126,-0.0
 0003413,-0.00002034,-0.00008688,0.00034550,-0.00011820,-0.00005416,-0.
 00012603,-0.00033392,0.00046666,-0.00042439,-0.00037762,-0.00022735,-0
 .00489350,0.00186164,0.00985325,0.05564333,0.00001722,0.00012810,-0.00
 017033,0.00001361,-0.00005209,-0.00000032,-0.00001068,-0.00003234,-0.0
 0005154,0.00000328,-0.00000585,-0.00000447,0.00062870,-0.00035576,0.00
 054447,-0.00037813,0.00108153,0.00019616,0.00020069,-0.00032607,-0.000
 51363,-0.00041159,0.00034883,0.01218724,0.00033086,0.00008455,-0.00080
 256,0.00018181,-0.00052515,0.00046035,-0.00474327,-0.00053997,-0.01921
 005,-0.08281704,-0.02611231,-0.27366001,-0.00040878,-0.00126232,0.0011
 0444,0.00031057,-0.00071440,0.00099262,-0.00000545,-0.00002393,0.00000
 375,0.00003070,0.00004128,0.00001458,-0.00000836,0.00002534,0.00001394
 ,0.00002199,0.00000958,0.00001651,-0.00001692,0.00000211,-0.00001509,0
 .00001244,-0.00002345,0.00006665,0.00000069,0.00000269,0.00000704,0.00
 000033,-0.00000289,0.00003181,0.00001224,0.00001412,-0.00002749,-0.000
 11430,0.00011461,-0.00000632,-0.00003538,0.00008041,0.00004462,-0.0000
 6067,0.00017878,0.00017761,-0.00045101,0.00029618,0.00049185,-0.000345
 38,0.00297336,0.00006859,0.09389458,0.02526963,0.29465175,0.00031672,-
 0.00024289,-0.00011675,-0.00008412,-0.00000712,0.00000849,-0.00002192,
 -0.00005678,0.00006199,-0.00001920,0.00017504,-0.00001847,0.00222998,-
 0.00111182,-0.00053805,-0.00119439,0.00653253,-0.00027575,-0.00079700,
 -0.00139380,-0.00043112,-0.02838100,0.01726932,0.01302946,-0.00214450,
 -0.00123898,0.00348394,-0.00086754,-0.00121727,0.00028747,0.00206769,-
 0.00255084,-0.00253128,-0.11632919,0.09383752,0.06955716,0.00033974,0.
 00056949,0.00018591,-0.00007275,0.00012021,0.00015656,0.00004452,-0.00
 000155,-0.00002136,0.00003041,0.00009947,0.00004862,0.00002750,-0.0000
 4653,-0.00004505,0.00001188,0.00000366,-0.00001443,0.00004491,-0.00003
 358,-0.00001193,0.00000289,-0.00000451,-0.00001761,0.00004932,-0.00000
 933,-0.00004474,-0.00000853,-0.00000291,-0.00000136,0.00003018,0.00004
 276,-0.00003494,-0.00098468,0.00119057,-0.00031758,-0.00008357,-0.0000
 1430,-0.00014308,0.00031714,0.00005934,0.00003312,-0.00009721,0.000146
 50,0.00011222,0.00007371,0.00013881,-0.00037660,0.00814519,-0.00748480
 ,-0.00585275,0.13735381,-0.00017805,-0.00047647,-0.00024125,-0.0000418
 2,-0.00006359,0.00002260,-0.00002957,0.00003675,0.00006257,0.00002284,
 0.00016842,-0.00000574,-0.00034751,-0.00173190,0.00086743,0.00008716,0
 .00244450,0.00027790,-0.00053233,-0.00053243,-0.00059209,-0.00898381,0
 .00770971,0.00746979,-0.00156991,-0.00112847,0.00034305,0.00008127,-0.
 00360980,0.00284735,0.01652443,-0.01777186,-0.01639006,0.09870500,-0.1
 7550400,-0.09934678,-0.00090766,0.00059952,0.00104575,-0.00027788,-0.0
 0019620,0.00008415,0.00001774,-0.00000760,-0.00001320,0.00001860,0.000
 01751,0.00000306,-0.00000604,-0.00000809,-0.00001748,0.00000948,0.0000
 1961,-0.00002428,0.00003352,-0.00005054,-0.00002838,0.00000263,-0.0000
 1443,0.00000936,0.00003013,0.00001752,-0.00005384,-0.00000612,-0.00000
 659,0.00001007,-0.00000789,0.00000831,-0.00000359,-0.00016928,0.000393
 59,-0.00000070,0.00002996,-0.00002071,0.00002867,0.00109121,-0.0003585
 5,-0.00036458,-0.00021963,0.00008672,-0.00000642,-0.00029356,0.0015902
 5,0.00019154,0.00168534,-0.00125988,-0.00067456,-0.10476823,0.18964871
 ,-0.00017998,0.00023971,0.00008323,-0.00004037,-0.00002444,0.00004562,
 0.00002045,0.00000488,-0.00003029,-0.00004544,-0.00013433,-0.00001558,
 -0.00153460,0.00042337,-0.00038597,0.00108795,-0.00297166,0.00124092,0
 .00011372,0.00063017,-0.00020137,0.00201353,0.00413590,0.00268784,-0.0
 0088663,0.00102994,-0.00101887,-0.00088773,0.00279418,-0.00101102,-0.0
 1089853,0.01326747,0.00753015,0.07250374,-0.09986150,-0.12623969,-0.00
 032316,-0.00070206,0.00017450,0.00006989,-0.00005096,0.00010479,-0.000
 01767,-0.00001220,-0.00002047,-0.00002883,-0.00003558,-0.00002064,0.00
 002039,0.00000338,0.00001836,-0.00005328,-0.00004666,0.00001474,-0.000
 01133,0.00009287,0.00009651,0.00000607,0.00003583,-0.00011001,-0.00002
 820,-0.00000230,0.00005060,0.00002434,-0.00001114,-0.00000869,-0.00003
 024,-0.00002934,0.00002756,-0.00005339,-0.00009054,0.00000814,-0.00009
 085,0.00013782,-0.00003166,-0.00063773,0.00028911,0.00033628,-0.000183
 03,0.00028470,0.00022962,-0.00033692,-0.00060534,0.00119599,0.01657992
 ,-0.02329094,-0.01661217,-0.07617209,0.10449965,0.13186161\\0.00000254
 ,0.00000037,-0.00000009,0.00000347,-0.00000076,-0.00000164,0.00000065,
 0.00000126,0.00000166,-0.00000067,-0.00000080,-0.00000117,-0.00000110,
 0.00000048,-0.00000032,0.00000258,-0.00000101,-0.00000089,-0.00000085,
 -0.00000195,-0.00000300,-0.00000049,0.00000007,-0.00000035,-0.00000120
 ,-0.00000130,-0.00000151,-0.00000212,-0.00000016,-0.00000018,-0.000000
 95,0.00000136,0.00000124,-0.00000129,0.00000057,0.00000166,-0.00000247
 ,0.00000198,0.00000347,-0.00000254,0.00000170,0.00000355,0.00000399,-0
 .00000091,-0.00000156,0.00000322,-0.00000146,-0.00000255,0.00000463,-0
 .00000019,-0.00000036,0.00000218,0.00000086,0.00000163,0.00000278,0.00
 000158,0.00000262,-0.00000013,0.00000150,0.00000253,-0.00000023,-0.000
 00109,-0.00000181,-0.00000230,-0.00000052,-0.00000062,-0.00000092,-0.0
 0000177,-0.00000289,-0.00000225,-0.00000179,-0.00000287,0.00000046,-0.
 00000135,-0.00000243,-0.00000216,-0.00000057,-0.00000069,-0.00000399,-
 0.00000015,0.,0.00000070,0.00000102,0.00000174,-0.00000224,0.00000145,
 0.00000235,0.00000068,0.00000158,0.00000249\\\@
 The archive entry for this job was punched.


 A DANDELION FROM A LOVER MEANS MORE THAN AN ORCHID FROM A FRIEND.
 Job cpu time:  0 days  0 hours 16 minutes  5.3 seconds.
 File lengths (MBytes):  RWF=    113 Int=      0 D2E=      0 Chk=      3 Scr=      1
 Normal termination of Gaussian DV at Wed Oct 19 22:56:57 2011.
