 Entering Gaussian System, Link 0=gdv
 Input=tda.gjf
 Output=tda.log
 Initial command:
 /home/foresman/gdv/l1.exe /tmp/Gau-24880.inp -scrdir=/tmp/
 Default is to use a total of   8 processors:
                                8 via shared-memory
                                1 via Linda
 Entering Link 1 = /home/foresman/gdv/l1.exe PID=     24881.
  
 Copyright (c) 1988,1990,1992,1993,1995,1998,2003,2009,2011,
            Gaussian, Inc.  All Rights Reserved.
  
 This is the private, development version of
 the Gaussian(R) DV system of programs. It is based on
 the Gaussian(R) 09 system (copyright 2009, Gaussian, Inc.),
 the Gaussian(R) 03 system (copyright 2003, Gaussian, Inc.),
 the Gaussian(R) 98 system (copyright 1998, Gaussian, Inc.),
 the Gaussian(R) 94 system (copyright 1995, Gaussian, Inc.),
 the Gaussian 92(TM) system (copyright 1992, Gaussian, Inc.),
 the Gaussian 90(TM) system (copyright 1990, Gaussian, Inc.),
 the Gaussian 88(TM) system (copyright 1988, Gaussian, Inc.),
 the Gaussian 86(TM) system (copyright 1986, Carnegie Mellon
 University), and the Gaussian 82(TM) system (copyright 1983,
 Carnegie Mellon University). Gaussian is a federally registered
 trademark of Gaussian, Inc.
  
 This software contains proprietary and confidential information,
 including trade secrets, belonging to Gaussian, Inc.
  
 This software is provided under written license and may be
 used, copied, transmitted, or stored only in accord with that
 written license.
  
 The following legend is applicable only to US Government
 contracts under FAR:
  
                    RESTRICTED RIGHTS LEGEND
  
 Use, reproduction and disclosure by the US Government is
 subject to restrictions as set forth in subparagraphs (a)
 and (c) of the Commercial Computer Software - Restricted
 Rights clause in FAR 52.227-19.
  
 Gaussian, Inc.
 340 Quinnipiac St., Bldg. 40, Wallingford CT 06492
  
  
 ---------------------------------------------------------------
 Warning -- This program may not be used in any manner that
 competes with the business of Gaussian, Inc. or will provide
 assistance to any competitor of Gaussian, Inc.  The licensee
 of this program is prohibited from giving any competitor of
 Gaussian, Inc. access to this program.  By using this program,
 the user acknowledges that Gaussian, Inc. is engaged in the
 business of creating and licensing software in the field of
 computational chemistry and represents and warrants to the
 licensee that it is not a competitor of Gaussian, Inc. and that
 it will not use this program in any manner prohibited above.
 ---------------------------------------------------------------
  

 Cite this work as:
 Gaussian Development Version, Revision H.13,
 M. J. Frisch, G. W. Trucks, H. B. Schlegel, G. E. Scuseria, 
 M. A. Robb, J. R. Cheeseman, G. Scalmani, V. Barone, B. Mennucci, 
 G. A. Petersson, H. Nakatsuji, M. Caricato, X. Li, H. P. Hratchian, 
 A. F. Izmaylov, J. Bloino, G. Zheng, J. L. Sonnenberg, W. Liang, 
 M. Hada, M. Ehara, K. Toyota, R. Fukuda, J. Hasegawa, M. Ishida, 
 T. Nakajima, Y. Honda, O. Kitao, H. Nakai, T. Vreven, 
 J. A. Montgomery, Jr., J. E. Peralta, F. Ogliaro, M. Bearpark, 
 J. J. Heyd, E. Brothers, K. N. Kudin, V. N. Staroverov, T. Keith, 
 R. Kobayashi, J. Normand, K. Raghavachari, A. Rendell, J. C. Burant, 
 S. S. Iyengar, J. Tomasi, M. Cossi, N. Rega, J. M. Millam, M. Klene, 
 J. E. Knox, J. B. Cross, V. Bakken, C. Adamo, J. Jaramillo, 
 R. Gomperts, R. E. Stratmann, O. Yazyev, A. J. Austin, R. Cammi, 
 C. Pomelli, J. W. Ochterski, R. L. Martin, K. Morokuma, 
 V. G. Zakrzewski, G. A. Voth, P. Salvador, J. J. Dannenberg, 
 S. Dapprich, P. V. Parandekar, N. J. Mayhall, A. D. Daniels, 
 O. Farkas, J. B. Foresman, J. V. Ortiz, J. Cioslowski, 
 and D. J. Fox, Gaussian, Inc., Wallingford CT, 2010.
 
 ******************************************
 Gaussian DV:  EM64L-GDVRevH.13 30-Sep-2011
                19-Oct-2011 
 ******************************************
 %chk=tda
 %nprocshared=8
 Will use up to    8 processors via shared memory.
 Default route:  maxdisk=400GB
 ------------------------------------
 #p B3LYP/3-21G freq=vcd Geom=Connect
 ------------------------------------
 1/10=4,30=1,38=1,57=2/1,3;
 2/12=2,17=6,18=5,40=1/2;
 3/5=5,11=2,16=1,25=1,30=1,36=2,71=2,74=-5,140=1/1,2,3;
 4//1;
 5/5=2,38=5,98=1/2;
 8/6=4,10=90,11=11/1;
 10/15=4,46=1/2;
 11/6=1,8=1,9=11,15=111,16=1/1,2,10;
 10/6=1,46=1/2;
 6/7=2,8=2,9=2,10=2,18=1,28=1/1;
 7/8=1,10=1,25=1/1,2,3,16;
 1/10=4,30=1/3;
 99//99;
 Leave Link    1 at Wed Oct 19 22:56:57 2011, MaxMem=          0 cpu:       0.3
 (Enter /home/foresman/gdv/l101.exe)
 ---------------
 4 -22.652 0.000
 ---------------
 Charge =  0 Multiplicity = 1
 Symbolic Z-Matrix:
 C                    -0.72144  -1.72635   0.99591 
 C                    -2.22567  -1.77852   1.28789 
 C                    -0.235    -3.00553   0.29715 
 C                     0.09205  -1.41937   2.26294 
 O                    -0.62429  -0.56727   0.04435 
 C                     0.61937  -0.2112   -0.45518 
 O                     1.6988   -0.75948  -0.18659 
 N                     0.47701   0.85367  -1.29077 
 C                    -0.819     1.4842   -1.65515 
 C                    -0.39355   2.55116  -2.7016 
 C                     1.08817   2.84494  -2.35559 
 C                     1.63449   1.44965  -1.99516 
 O                     1.2       3.76559  -1.23049 
 H                     0.8535    3.27756  -0.43419 
 H                    -2.4424   -2.59587   1.98281 
 H                    -2.55066  -0.83251   1.73105 
 H                    -2.77853  -1.93941   0.35765 
 H                    -0.369    -3.86205   0.96603 
 H                    -0.81785  -3.1738   -0.61457 
 H                     0.81931  -2.898     0.03902 
 H                    -0.02731  -2.2362    2.9823 
 H                     1.14431  -1.3095    1.99777 
 H                    -0.26838  -0.49119   2.71893 
 H                    -1.28129   1.93653  -0.77218 
 H                    -1.51196   0.74422  -2.0615 
 H                    -0.46035   2.13422  -3.7115 
 H                    -0.99138   3.46183  -2.64018 
 H                     1.63034   3.3113   -3.17822 
 H                     2.49935   1.50313  -1.33228 
 H                     1.89606   0.87476  -2.89214 
 
 NAtoms=     30 NQM=        0 NQMF=       0 NMMI=     30 NMMIF=      0
                NMic=       0 NMicF=      0.
                    Isotopes and Nuclear Properties:
 (Nuclear quadrupole moments (NQMom) in fm**2, nuclear magnetic moments (NMagM)
  in nuclear magnetons)

  Atom         1           2           3           4           5           6           7           8           9          10
 IAtWgt=          12          12          12          12          16          12          16          14          12          12
 AtmWgt=  12.0000000  12.0000000  12.0000000  12.0000000  15.9949146  12.0000000  15.9949146  14.0030740  12.0000000  12.0000000
 NucSpn=           0           0           0           0           0           0           0           2           0           0
 AtZEff=   0.0000000   0.0000000   0.0000000   0.0000000   0.0000000   0.0000000   0.0000000   0.0000000   0.0000000   0.0000000
 NQMom=    0.0000000   0.0000000   0.0000000   0.0000000   0.0000000   0.0000000   0.0000000   2.0440000   0.0000000   0.0000000
 NMagM=    0.0000000   0.0000000   0.0000000   0.0000000   0.0000000   0.0000000   0.0000000   0.4037610   0.0000000   0.0000000
 AtZNuc=   6.0000000   6.0000000   6.0000000   6.0000000   8.0000000   6.0000000   8.0000000   7.0000000   6.0000000   6.0000000

  Atom        11          12          13          14          15          16          17          18          19          20
 IAtWgt=          12          12          16           1           1           1           1           1           1           1
 AtmWgt=  12.0000000  12.0000000  15.9949146   1.0078250   1.0078250   1.0078250   1.0078250   1.0078250   1.0078250   1.0078250
 NucSpn=           0           0           0           1           1           1           1           1           1           1
 AtZEff=   0.0000000   0.0000000   0.0000000   0.0000000   0.0000000   0.0000000   0.0000000   0.0000000   0.0000000   0.0000000
 NQMom=    0.0000000   0.0000000   0.0000000   0.0000000   0.0000000   0.0000000   0.0000000   0.0000000   0.0000000   0.0000000
 NMagM=    0.0000000   0.0000000   0.0000000   2.7928460   2.7928460   2.7928460   2.7928460   2.7928460   2.7928460   2.7928460
 AtZNuc=   6.0000000   6.0000000   8.0000000   1.0000000   1.0000000   1.0000000   1.0000000   1.0000000   1.0000000   1.0000000

  Atom        21          22          23          24          25          26          27          28          29          30
 IAtWgt=           1           1           1           1           1           1           1           1           1           1
 AtmWgt=   1.0078250   1.0078250   1.0078250   1.0078250   1.0078250   1.0078250   1.0078250   1.0078250   1.0078250   1.0078250
 NucSpn=           1           1           1           1           1           1           1           1           1           1
 AtZEff=   0.0000000   0.0000000   0.0000000   0.0000000   0.0000000   0.0000000   0.0000000   0.0000000   0.0000000   0.0000000
 NQMom=    0.0000000   0.0000000   0.0000000   0.0000000   0.0000000   0.0000000   0.0000000   0.0000000   0.0000000   0.0000000
 NMagM=    2.7928460   2.7928460   2.7928460   2.7928460   2.7928460   2.7928460   2.7928460   2.7928460   2.7928460   2.7928460
 AtZNuc=   1.0000000   1.0000000   1.0000000   1.0000000   1.0000000   1.0000000   1.0000000   1.0000000   1.0000000   1.0000000
 Leave Link  101 at Wed Oct 19 22:56:58 2011, MaxMem=  128000000 cpu:       0.9
 (Enter /home/foresman/gdv/l103.exe)

 GradGradGradGradGradGradGradGradGradGradGradGradGradGradGradGradGradGrad
 Berny optimization.
 Initialization pass.
 Trust Radius=3.00D-01 FncErr=1.00D-07 GrdErr=1.00D-07
 Number of steps in this run=      2 maximum allowed number of steps=      2.
 GradGradGradGradGradGradGradGradGradGradGradGradGradGradGradGradGradGrad

 Leave Link  103 at Wed Oct 19 22:56:58 2011, MaxMem=  128000000 cpu:       0.2
 (Enter /home/foresman/gdv/l202.exe)
                          Input orientation:                          
 ---------------------------------------------------------------------
 Center     Atomic      Atomic             Coordinates (Angstroms)
 Number     Number       Type             X           Y           Z
 ---------------------------------------------------------------------
      1          6           0       -0.721441   -1.726350    0.995912
      2          6           0       -2.225672   -1.778516    1.287887
      3          6           0       -0.235001   -3.005533    0.297151
      4          6           0        0.092048   -1.419371    2.262941
      5          8           0       -0.624294   -0.567266    0.044346
      6          6           0        0.619367   -0.211204   -0.455182
      7          8           0        1.698802   -0.759477   -0.186589
      8          7           0        0.477012    0.853671   -1.290770
      9          6           0       -0.819005    1.484200   -1.655155
     10          6           0       -0.393548    2.551156   -2.701595
     11          6           0        1.088171    2.844936   -2.355591
     12          6           0        1.634491    1.449651   -1.995165
     13          8           0        1.200002    3.765590   -1.230489
     14          1           0        0.853504    3.277559   -0.434192
     15          1           0       -2.442398   -2.595872    1.982814
     16          1           0       -2.550662   -0.832507    1.731047
     17          1           0       -2.778526   -1.939411    0.357645
     18          1           0       -0.368999   -3.862051    0.966034
     19          1           0       -0.817851   -3.173804   -0.614567
     20          1           0        0.819310   -2.898001    0.039015
     21          1           0       -0.027307   -2.236199    2.982303
     22          1           0        1.144309   -1.309501    1.997771
     23          1           0       -0.268377   -0.491191    2.718927
     24          1           0       -1.281292    1.936534   -0.772180
     25          1           0       -1.511962    0.744218   -2.061496
     26          1           0       -0.460351    2.134216   -3.711504
     27          1           0       -0.991377    3.461832   -2.640185
     28          1           0        1.630345    3.311303   -3.178219
     29          1           0        2.499349    1.503127   -1.332276
     30          1           0        1.896056    0.874762   -2.892137
 ---------------------------------------------------------------------
                    Distance matrix (angstroms):
                    1          2          3          4          5
     1  C    0.000000
     2  C    1.533194   0.000000
     3  C    1.536619   2.539665   0.000000
     4  C    1.536672   2.539988   2.546998   0.000000
     5  O    1.502795   2.361765   2.482057   2.482215   0.000000
     6  C    2.489801   3.686327   3.017321   3.020914   1.386723
     7  O    2.861945   4.314397   3.003060   3.002884   2.342446
     8  N    3.649892   4.569725   4.233428   4.236009   2.239302
     9  C    4.164770   4.613625   4.930544   4.961070   2.671091
    10  C    5.663579   6.165932   6.316202   6.375540   4.161489
    11  C    5.950120   6.755206   6.558645   6.364544   4.509475
    12  C    4.958219   6.008357   5.347745   5.361145   3.650982
    13  O    6.229784   6.986743   7.088090   6.349443   4.871026
    14  H    5.437348   6.165288   6.418485   5.469505   4.146753
    15  H    2.166042   1.094515   2.807469   2.808210   3.343412
    16  H    2.164585   1.094048   3.484305   2.758847   2.574142
    17  H    2.164343   1.094022   2.758586   3.484363   2.573257
    18  H    2.164793   2.809260   1.094981   2.803787   3.430786
    19  H    2.167501   2.747384   1.095107   3.490845   2.695491
    20  H    2.159243   3.476326   1.090765   2.767869   2.741595
    21  H    2.165067   2.813064   2.800902   1.094959   3.431228
    22  H    2.158358   3.475728   2.769680   1.090707   2.737652
    23  H    2.167871   2.745193   3.491135   1.095147   2.699231
    24  H    4.105643   4.351704   5.163547   4.728649   2.714291
    25  H    4.009535   4.253462   4.610258   5.094577   2.634865
    26  H    6.093595   6.589366   6.522049   6.973315   4.629394
    27  H    6.341238   6.664420   7.143309   7.002899   4.855418
    28  H    6.952137   7.792383   7.447156   7.372371   5.523732
    29  H    5.120885   6.321412   5.519032   5.221271   3.992337
    30  H    5.360410   6.442137   5.456157   5.923876   4.129714
                    6          7          8          9         10
     6  C    0.000000
     7  O    1.240131   0.000000
     8  N    1.361040   2.305261   0.000000
     9  C    2.526508   3.678332   1.486608   0.000000
    10  C    3.701757   4.654404   2.372712   1.553848   0.000000
    11  C    3.629232   4.250792   2.339337   2.445309   1.549684
    12  C    2.482028   2.855753   1.480244   2.477184   2.413566
    13  O    4.093058   4.670627   3.000937   3.075950   2.485640
    14  H    3.496673   4.132008   2.598212   2.739374   2.687735
    15  H    4.583107   5.022768   5.580202   5.702387   7.254886
    16  H    3.900602   4.662682   4.597976   4.453328   5.979183
    17  H    3.897829   4.662071   4.595336   4.428567   5.933992
    18  H    4.040472   3.902603   5.295936   5.971226   7.387918
    19  H    3.296665   3.513643   4.284212   4.772822   6.108264
    20  H    2.739176   2.323293   3.995064   4.975739   6.218945
    21  H    4.041670   3.898979   5.297243   5.997847   7.440403
    22  H    2.738393   2.319788   3.992380   5.000323   6.273254
    23  H    3.307786   3.519062   4.294407   4.830937   6.217203
    24  H    2.885441   4.061077   2.129122   1.094513   2.210994
    25  H    2.834721   4.010659   2.135888   1.092189   2.219370
    26  H    4.155770   5.045833   2.894547   2.186258   1.094631
    27  H    4.567267   5.574643   3.283229   2.216083   1.091101
    28  H    4.565639   5.052305   3.306447   3.414284   2.213851
    29  H    2.691199   2.659482   2.124467   3.334078   3.367826
    30  H    2.957702   3.166959   2.139744   3.045175   2.844097
                   11         12         13         14         15
    11  C    0.000000
    12  C    1.541166   0.000000
    13  O    1.458069   2.477313   0.000000
    14  H    1.983433   2.527414   0.996154   0.000000
    15  H    7.803145   6.986530   8.003786   7.155563   0.000000
    16  H    6.592823   6.050488   6.631792   5.759275   1.784535
    17  H    6.723316   6.041207   7.134276   6.405890   1.784684
    18  H    7.624974   6.402878   8.091192   7.377613   2.633635
    19  H    6.548994   5.412612   7.253018   6.666787   3.117618
    20  H    6.227982   4.868725   6.794116   6.193757   3.808986
    21  H    7.453546   6.412663   7.434741   6.545975   2.638372
    22  H    6.017828   4.878189   6.015090   5.200012   3.810439
    23  H    6.222597   5.441548   5.989508   5.040264   3.114147
    24  H    2.991111   3.199146   3.116458   2.543607   5.429628
    25  H    3.355623   3.225245   4.144154   3.829016   5.327134
    26  H    2.177509   2.793351   3.401998   3.711364   7.663387
    27  H    2.187710   3.370475   2.623290   2.881656   7.757149
    28  H    1.090030   2.205761   2.045782   2.852069   8.838450
    29  H    2.199784   1.090991   2.611015   2.581466   7.225820
    30  H    2.195938   1.097029   3.406237   3.591913   7.391388
                   16         17         18         19         20
    16  H    0.000000
    17  H    1.778592   0.000000
    18  H    3.810910   3.142054   0.000000
    19  H    3.739814   2.512602   1.781418   0.000000
    20  H    4.299528   3.736956   1.789088   1.784246   0.000000
    21  H    3.146953   3.813937   2.612564   3.800202   3.133318
    22  H    3.735168   4.298306   3.141671   3.761650   2.542770
    23  H    2.510225   3.738160   3.800718   4.313990   3.762675
    24  H    3.942719   4.305945   6.121867   5.133729   5.333225
    25  H    4.236548   3.828615   5.629389   4.233945   4.807570
    26  H    6.541575   6.206960   7.605454   6.155803   6.405243
    27  H    6.323005   6.430732   8.187273   6.940094   7.134716
    28  H    7.665042   7.714303   8.522278   7.390710   7.040158
    29  H    6.351514   6.524022   6.503444   5.778633   4.906413
    30  H    6.637913   6.350777   6.515624   5.379916   4.897425
                   21         22         23         24         25
    21  H    0.000000
    22  H    1.789066   0.000000
    23  H    1.781161   1.784763   0.000000
    24  H    5.751549   4.908453   4.371233   0.000000
    25  H    6.043756   5.267939   5.091678   1.771203   0.000000
    26  H    8.005942   6.857838   6.948386   3.058210   2.400106
    27  H    8.062838   6.988376   6.698448   2.428997   2.826892
    28  H    8.454266   6.955496   7.269143   4.019532   4.208454
    29  H    6.243567   4.564670   5.296211   3.846400   4.147086
    30  H    6.920003   5.408079   6.167222   3.964481   3.510212
                   26         27         28         29         30
    26  H    0.000000
    27  H    1.786695   0.000000
    28  H    2.457831   2.680590   0.000000
    29  H    3.849523   4.210976   2.726202   0.000000
    30  H    2.794681   3.885058   2.467626   1.786609   0.000000
 Stoichiometry    C9H17NO3
 Framework group  C1[X(C9H17NO3)]
 Deg. of freedom    84
 Full point group                 C1      NOp   1
 Largest Abelian subgroup         C1      NOp   1
 Largest concise Abelian subgroup C1      NOp   1
                         Standard orientation:                         
 ---------------------------------------------------------------------
 Center     Atomic      Atomic             Coordinates (Angstroms)
 Number     Number       Type             X           Y           Z
 ---------------------------------------------------------------------
      1          6           0       -2.594883    0.204947    0.118669
      2          6           0       -3.163883    1.616352    0.305370
      3          6           0       -3.117191   -0.450987   -1.169020
      4          6           0       -2.844347   -0.675179    1.353378
      5          8           0       -1.122459    0.473252   -0.016878
      6          6           0       -0.260230   -0.595645   -0.209293
      7          8           0       -0.582476   -1.791306   -0.276197
      8          7           0        1.014796   -0.129356   -0.305800
      9          6           0        1.402433    1.305508   -0.275719
     10          6           0        2.933258    1.247717   -0.535870
     11          6           0        3.340775   -0.169474   -0.059404
     12          6           0        2.160169   -1.038685   -0.534627
     13          8           0        3.488798   -0.222016    1.390180
     14          1           0        2.577553   -0.087499    1.769469
     15          1           0       -4.251488    1.567911    0.418210
     16          1           0       -2.728823    2.076828    1.197349
     17          1           0       -2.918275    2.233119   -0.564205
     18          1           0       -4.201673   -0.584707   -1.098295
     19          1           0       -2.894956    0.191017   -2.027915
     20          1           0       -2.632292   -1.418630   -1.304330
     21          1           0       -3.921130   -0.820931    1.488399
     22          1           0       -2.354225   -1.639473    1.213524
     23          1           0       -2.439233   -0.185699    2.245364
     24          1           0        1.168029    1.740451    0.700928
     25          1           0        0.863490    1.871028   -1.039005
     26          1           0        3.136280    1.348907   -1.606739
     27          1           0        3.482451    2.012352    0.015693
     28          1           0        4.296889   -0.495044   -0.469300
     29          1           0        2.051192   -1.947694    0.058743
     30          1           0        2.255134   -1.303203   -1.595044
 ---------------------------------------------------------------------
 Rotational constants (GHZ):      1.6984127      0.4110625      0.3862673
 Leave Link  202 at Wed Oct 19 22:56:58 2011, MaxMem=  128000000 cpu:       0.0
 (Enter /home/foresman/gdv/l301.exe)
 Standard basis: 3-21G (6D, 7F)
 Ernie: Thresh=  0.10000D-02 Tol=  0.10000D-05 Strict=F.
 There are   151 symmetry adapted cartesian basis functions of A   symmetry.
 There are   151 symmetry adapted basis functions of A   symmetry.
   151 basis functions,   246 primitive gaussians,   151 cartesian basis functions
    51 alpha electrons       51 beta electrons
       nuclear repulsion energy       880.0533749256 Hartrees.
 IExCor=  402 DFT=T Ex+Corr=B3LYP ExCW=0 ScaHFX=  0.200000
 ScaDFX=  0.800000  0.720000  1.000000  0.810000 ScalE2=  1.000000  1.000000
 IRadAn=      0 IRanWt=     -1 IRanGd=            0 ICorTp=0 IEmpDi=  4
 NAtoms=   30 NActive=   30 NUniq=   30 SFac= 1.00D+00 NAtFMM=   60 NAOKFM=F Big=F
 Integral buffers will be    131072 words long.
 Raffenetti 2 integral format.
 Two-electron integral symmetry is turned on.
 Leave Link  301 at Wed Oct 19 22:56:58 2011, MaxMem=  128000000 cpu:       0.5
 (Enter /home/foresman/gdv/l302.exe)
 NPDir=0 NMtPBC=     1 NCelOv=     1 NCel=       1 NClECP=     1 NCelD=      1
         NCelK=      1 NCelE2=     1 NClLst=     1 CellRange=     0.0.
 One-electron integrals computed using PRISM.
 NBasis=   151 RedAO= T EigKep=  9.46D-03  NBF=   151
 NBsUse=   151 1.00D-06 EigRej= -1.00D+00 NBFU=   151
 Precomputing XC quadrature grid using
 IXCGrd= 2 IRadAn=           0 IRanWt=          -1 IRanGd=           0 AccXCQ= 0.00D+00.
 NRdTot=    1896 NPtTot=      240242 NUsed=      253917 NTot=      253949
 NSgBfM=   148   148   148   148   148 NAtAll=    30    30.
 Leave Link  302 at Wed Oct 19 22:56:58 2011, MaxMem=  128000000 cpu:       2.2
 (Enter /home/foresman/gdv/l303.exe)
 DipDrv:  MaxL=2.
 Leave Link  303 at Wed Oct 19 22:56:58 2011, MaxMem=  128000000 cpu:       0.4
 (Enter /home/foresman/gdv/l401.exe)
 ExpMin= 1.83D-01 ExpMax= 3.22D+02 ExpMxC= 3.22D+02 IAcc=1 IRadAn=         1 AccDes= 0.00D+00
 Harris functional with IExCor=  402 and IRadAn=       1 diagonalized for initial guess.
 HarFok:  IExCor=  402 AccDes= 0.00D+00 IRadAn=         1 IDoV= 1 UseB2=F ITyADJ=14
 ICtDFT=  3500011 ScaDFX=  1.000000  1.000000  1.000000  1.000000
 FoFCou: FMM=F IPFlag=           0 FMFlag=      100000 FMFlg1=           0
         NFxFlg=           0 DoJE=T BraDBF=F KetDBF=T FulRan=T
         wScrn=  0.000000 ICntrl=     500 IOpCl=  0 I1Cent=   200000004 NGrid=           0
         NMat0=    1 NMatS0=      1 NMatT0=    0 NMatD0=    1 NMtDS0=    0 NMtDT0=    0
 Petite list used in FoFCou.
 Harris En= -630.189842705522    
 Initial guess orbital symmetries:
       Occupied  (A) (A) (A) (A) (A) (A) (A) (A) (A) (A) (A) (A)
                 (A) (A) (A) (A) (A) (A) (A) (A) (A) (A) (A) (A)
                 (A) (A) (A) (A) (A) (A) (A) (A) (A) (A) (A) (A)
                 (A) (A) (A) (A) (A) (A) (A) (A) (A) (A) (A) (A)
                 (A) (A) (A)
       Virtual   (A) (A) (A) (A) (A) (A) (A) (A) (A) (A) (A) (A)
                 (A) (A) (A) (A) (A) (A) (A) (A) (A) (A) (A) (A)
                 (A) (A) (A) (A) (A) (A) (A) (A) (A) (A) (A) (A)
                 (A) (A) (A) (A) (A) (A) (A) (A) (A) (A) (A) (A)
                 (A) (A) (A) (A) (A) (A) (A) (A) (A) (A) (A) (A)
                 (A) (A) (A) (A) (A) (A) (A) (A) (A) (A) (A) (A)
                 (A) (A) (A) (A) (A) (A) (A) (A) (A) (A) (A) (A)
                 (A) (A) (A) (A) (A) (A) (A) (A) (A) (A) (A) (A)
                 (A) (A) (A) (A)
 The electronic state of the initial guess is 1-A.
 Leave Link  401 at Wed Oct 19 22:56:58 2011, MaxMem=  128000000 cpu:       2.9
 (Enter /home/foresman/gdv/l502.exe)
 Closed shell SCF:
 Using DIIS extrapolation, IDIIS=  1040.
 Integral symmetry usage will be decided dynamically.
       253634 words used for storage of precomputed grid.
 Keep R1 ints in memory in canonical form, NReq=67953435.
 IVT=      342581 IEndB=      342581 NGot=   128000000 MDV=    61802394
 LenX=    61802394 LenY=    61779152
 Requested convergence on RMS density matrix=1.00D-08 within 128 cycles.
 Requested convergence on MAX density matrix=1.00D-06.
 Requested convergence on             energy=1.00D-06.
 No special actions if energy rises.
 FoFCou: FMM=F IPFlag=           0 FMFlag=           0 FMFlg1=           0
         NFxFlg=           0 DoJE=F BraDBF=F KetDBF=F FulRan=T
         wScrn=  0.000000 ICntrl=     600 IOpCl=  0 I1Cent=           0 NGrid=           0
         NMat0=    1 NMatS0=  11476 NMatT0=    0 NMatD0=    1 NMtDS0=    0 NMtDT0=    0
 Symmetry not used in FoFCou.
 Integral accuracy reduced to 1.0D-05 until final iterations.

 Cycle   1  Pass 0  IDiag  1:
 E= -629.850365695659    
 DIIS: error= 4.69D-02 at cycle   1 NSaved=   1.
 NSaved= 1 IEnMin= 1 EnMin= -629.850365695659     IErMin= 1 ErrMin= 4.69D-02
 ErrMax= 4.69D-02  0.00D+00 EMaxC= 1.00D-01 BMatC= 3.65D-01 BMatP= 3.65D-01
 IDIUse=3 WtCom= 5.31D-01 WtEn= 4.69D-01
 Coeff-Com:  0.100D+01
 Coeff-En:   0.100D+01
 Coeff:      0.100D+01
 Gap=     0.272 Goal=   None    Shift=    0.000
 GapD=    0.272 DampG=1.000 DampE=0.500 DampFc=0.5000 IDamp=-1.
 Damping current iteration by 5.00D-01
 RMSDP=8.95D-03 MaxDP=1.72D-01              OVMax= 3.30D-01

 Cycle   2  Pass 0  IDiag  1:
 E= -629.948741367226     Delta-E=       -0.098375671567 Rises=F Damp=T
 DIIS: error= 3.37D-02 at cycle   2 NSaved=   2.
 NSaved= 2 IEnMin= 2 EnMin= -629.948741367226     IErMin= 2 ErrMin= 3.37D-02
 ErrMax= 3.37D-02  0.00D+00 EMaxC= 1.00D-01 BMatC= 5.30D-02 BMatP= 3.65D-01
 IDIUse=3 WtCom= 6.63D-01 WtEn= 3.37D-01
 Coeff-Com:  0.206D+00 0.794D+00
 Coeff-En:   0.316D+00 0.684D+00
 Coeff:      0.243D+00 0.757D+00
 Gap=     0.289 Goal=   None    Shift=    0.000
 RMSDP=2.82D-03 MaxDP=6.32D-02 DE=-9.84D-02 OVMax= 2.11D-01

 Cycle   3  Pass 0  IDiag  1:
 E= -630.126140316613     Delta-E=       -0.177398949387 Rises=F Damp=F
 DIIS: error= 4.01D-02 at cycle   3 NSaved=   3.
 NSaved= 3 IEnMin= 3 EnMin= -630.126140316613     IErMin= 2 ErrMin= 3.37D-02
 ErrMax= 4.01D-02  0.00D+00 EMaxC= 1.00D-01 BMatC= 6.26D-02 BMatP= 5.30D-02
 IDIUse=2 WtCom= 0.00D+00 WtEn= 1.00D+00
 Coeff-En:   0.000D+00 0.000D+00 0.100D+01
 Coeff:      0.000D+00 0.000D+00 0.100D+01
 Gap=     0.325 Goal=   None    Shift=    0.000
 RMSDP=5.22D-03 MaxDP=1.29D-01 DE=-1.77D-01 OVMax= 3.06D-01

 Cycle   4  Pass 0  IDiag  1:
 E= -629.884399293218     Delta-E=        0.241741023395 Rises=F Damp=F
 DIIS: error= 1.10D-01 at cycle   4 NSaved=   4.
 NSaved= 4 IEnMin= 3 EnMin= -630.126140316613     IErMin= 2 ErrMin= 3.37D-02
 ErrMax= 1.10D-01  0.00D+00 EMaxC= 1.00D-01 BMatC= 3.74D-01 BMatP= 5.30D-02
 IDIUse=2 WtCom= 0.00D+00 WtEn= 1.00D+00
 Coeff-En:   0.000D+00 0.000D+00 0.796D+00 0.204D+00
 Coeff:      0.000D+00 0.000D+00 0.796D+00 0.204D+00
 Gap=     0.283 Goal=   None    Shift=    0.000
 RMSDP=2.85D-03 MaxDP=7.37D-02 DE= 2.42D-01 OVMax= 1.38D-01

 Cycle   5  Pass 0  IDiag  1:
 E= -630.158903113090     Delta-E=       -0.274503819872 Rises=F Damp=F
 DIIS: error= 2.63D-02 at cycle   5 NSaved=   5.
 NSaved= 5 IEnMin= 5 EnMin= -630.158903113090     IErMin= 5 ErrMin= 2.63D-02
 ErrMax= 2.63D-02  0.00D+00 EMaxC= 1.00D-01 BMatC= 2.44D-02 BMatP= 5.30D-02
 IDIUse=3 WtCom= 7.37D-01 WtEn= 2.63D-01
 Coeff-Com: -0.114D-01 0.555D-01 0.315D+00-0.705D-01 0.712D+00
 Coeff-En:   0.000D+00 0.000D+00 0.319D+00 0.000D+00 0.681D+00
 Coeff:     -0.839D-02 0.409D-01 0.316D+00-0.519D-01 0.704D+00
 Gap=     0.299 Goal=   None    Shift=    0.000
 RMSDP=1.05D-03 MaxDP=2.60D-02 DE=-2.75D-01 OVMax= 4.04D-02

 Cycle   6  Pass 0  IDiag  1:
 E= -630.178665261796     Delta-E=       -0.019762148706 Rises=F Damp=F
 DIIS: error= 2.67D-03 at cycle   6 NSaved=   6.
 NSaved= 6 IEnMin= 6 EnMin= -630.178665261796     IErMin= 6 ErrMin= 2.67D-03
 ErrMax= 2.67D-03  0.00D+00 EMaxC= 1.00D-01 BMatC= 2.91D-04 BMatP= 2.44D-02
 IDIUse=3 WtCom= 9.73D-01 WtEn= 2.67D-02
 Coeff-Com: -0.997D-02 0.255D-01 0.133D+00-0.454D-01 0.401D+00 0.496D+00
 Coeff-En:   0.000D+00 0.000D+00 0.000D+00 0.000D+00 0.000D+00 0.100D+01
 Coeff:     -0.971D-02 0.248D-01 0.129D+00-0.442D-01 0.390D+00 0.510D+00
 Gap=     0.283 Goal=   None    Shift=    0.000
 RMSDP=1.19D-04 MaxDP=3.72D-03 DE=-1.98D-02 OVMax= 5.98D-03

 Cycle   7  Pass 0  IDiag  1:
 E= -630.178896797450     Delta-E=       -0.000231535655 Rises=F Damp=F
 DIIS: error= 4.43D-04 at cycle   7 NSaved=   7.
 NSaved= 7 IEnMin= 7 EnMin= -630.178896797450     IErMin= 7 ErrMin= 4.43D-04
 ErrMax= 4.43D-04  0.00D+00 EMaxC= 1.00D-01 BMatC= 9.31D-06 BMatP= 2.91D-04
 IDIUse=3 WtCom= 9.96D-01 WtEn= 4.43D-03
 Coeff-Com: -0.339D-02 0.802D-02 0.347D-01-0.166D-01 0.125D+00 0.252D+00
 Coeff-Com:  0.600D+00
 Coeff-En:   0.000D+00 0.000D+00 0.000D+00 0.000D+00 0.000D+00 0.000D+00
 Coeff-En:   0.100D+01
 Coeff:     -0.338D-02 0.799D-02 0.345D-01-0.165D-01 0.124D+00 0.251D+00
 Coeff:      0.602D+00
 Gap=     0.283 Goal=   None    Shift=    0.000
 RMSDP=1.85D-05 MaxDP=4.54D-04 DE=-2.32D-04 OVMax= 5.90D-04

 Cycle   8  Pass 0  IDiag  1:
 E= -630.178903795462     Delta-E=       -0.000006998012 Rises=F Damp=F
 DIIS: error= 6.64D-05 at cycle   8 NSaved=   8.
 NSaved= 8 IEnMin= 8 EnMin= -630.178903795462     IErMin= 8 ErrMin= 6.64D-05
 ErrMax= 6.64D-05  0.00D+00 EMaxC= 1.00D-01 BMatC= 5.71D-07 BMatP= 9.31D-06
 IDIUse=1 WtCom= 1.00D+00 WtEn= 0.00D+00
 Coeff-Com: -0.316D-03-0.103D-03 0.292D-02-0.161D-02 0.142D-01 0.844D-01
 Coeff-Com:  0.299D+00 0.602D+00
 Coeff:     -0.316D-03-0.103D-03 0.292D-02-0.161D-02 0.142D-01 0.844D-01
 Coeff:      0.299D+00 0.602D+00
 Gap=     0.283 Goal=   None    Shift=    0.000
 RMSDP=5.79D-06 MaxDP=1.17D-04 DE=-7.00D-06 OVMax= 1.84D-04

 Initial convergence to 1.0D-05 achieved.  Increase integral accuracy.
 Cycle   9  Pass 1  IDiag  1:
 E= -630.179044629751     Delta-E=       -0.000140834288 Rises=F Damp=F
 DIIS: error= 1.33D-05 at cycle   1 NSaved=   1.
 NSaved= 1 IEnMin= 1 EnMin= -630.179044629751     IErMin= 1 ErrMin= 1.33D-05
 ErrMax= 1.33D-05  0.00D+00 EMaxC= 1.00D-01 BMatC= 8.69D-08 BMatP= 8.69D-08
 IDIUse=1 WtCom= 1.00D+00 WtEn= 0.00D+00
 Coeff-Com:  0.100D+01
 Coeff:      0.100D+01
 Gap=     0.283 Goal=   None    Shift=    0.000
 RMSDP=5.79D-06 MaxDP=1.17D-04 DE=-1.41D-04 OVMax= 6.28D-05

 Cycle  10  Pass 1  IDiag  1:
 E= -630.179044726947     Delta-E=       -0.000000097196 Rises=F Damp=F
 DIIS: error= 1.82D-05 at cycle   2 NSaved=   2.
 NSaved= 2 IEnMin= 2 EnMin= -630.179044726947     IErMin= 1 ErrMin= 1.33D-05
 ErrMax= 1.82D-05  0.00D+00 EMaxC= 1.00D-01 BMatC= 3.47D-08 BMatP= 8.69D-08
 IDIUse=1 WtCom= 1.00D+00 WtEn= 0.00D+00
 Coeff-Com:  0.337D+00 0.663D+00
 Coeff:      0.337D+00 0.663D+00
 Gap=     0.283 Goal=   None    Shift=    0.000
 RMSDP=1.90D-06 MaxDP=4.48D-05 DE=-9.72D-08 OVMax= 7.17D-05

 Cycle  11  Pass 1  IDiag  1:
 E= -630.179044735097     Delta-E=       -0.000000008150 Rises=F Damp=F
 DIIS: error= 1.51D-05 at cycle   3 NSaved=   3.
 NSaved= 3 IEnMin= 3 EnMin= -630.179044735097     IErMin= 1 ErrMin= 1.33D-05
 ErrMax= 1.51D-05  0.00D+00 EMaxC= 1.00D-01 BMatC= 2.45D-08 BMatP= 3.47D-08
 IDIUse=1 WtCom= 1.00D+00 WtEn= 0.00D+00
 Coeff-Com: -0.146D-01 0.458D+00 0.557D+00
 Coeff:     -0.146D-01 0.458D+00 0.557D+00
 Gap=     0.283 Goal=   None    Shift=    0.000
 RMSDP=9.31D-07 MaxDP=2.20D-05 DE=-8.15D-09 OVMax= 4.06D-05

 Cycle  12  Pass 1  IDiag  1:
 E= -630.179044752456     Delta-E=       -0.000000017359 Rises=F Damp=F
 DIIS: error= 3.59D-06 at cycle   4 NSaved=   4.
 NSaved= 4 IEnMin= 4 EnMin= -630.179044752456     IErMin= 4 ErrMin= 3.59D-06
 ErrMax= 3.59D-06  0.00D+00 EMaxC= 1.00D-01 BMatC= 5.21D-10 BMatP= 2.45D-08
 IDIUse=1 WtCom= 1.00D+00 WtEn= 0.00D+00
 Coeff-Com: -0.147D-01 0.246D+00 0.315D+00 0.454D+00
 Coeff:     -0.147D-01 0.246D+00 0.315D+00 0.454D+00
 Gap=     0.283 Goal=   None    Shift=    0.000
 RMSDP=1.90D-07 MaxDP=3.95D-06 DE=-1.74D-08 OVMax= 7.53D-06

 Cycle  13  Pass 1  IDiag  1:
 E= -630.179044752836     Delta-E=       -0.000000000380 Rises=F Damp=F
 DIIS: error= 1.42D-06 at cycle   5 NSaved=   5.
 NSaved= 5 IEnMin= 5 EnMin= -630.179044752836     IErMin= 5 ErrMin= 1.42D-06
 ErrMax= 1.42D-06  0.00D+00 EMaxC= 1.00D-01 BMatC= 8.40D-11 BMatP= 5.21D-10
 IDIUse=1 WtCom= 1.00D+00 WtEn= 0.00D+00
 Coeff-Com: -0.669D-02 0.878D-01 0.117D+00 0.295D+00 0.506D+00
 Coeff:     -0.669D-02 0.878D-01 0.117D+00 0.295D+00 0.506D+00
 Gap=     0.283 Goal=   None    Shift=    0.000
 RMSDP=6.76D-08 MaxDP=2.15D-06 DE=-3.80D-10 OVMax= 2.70D-06

 Cycle  14  Pass 1  IDiag  1:
 E= -630.179044752895     Delta-E=       -0.000000000059 Rises=F Damp=F
 DIIS: error= 2.52D-07 at cycle   6 NSaved=   6.
 NSaved= 6 IEnMin= 6 EnMin= -630.179044752895     IErMin= 6 ErrMin= 2.52D-07
 ErrMax= 2.52D-07  0.00D+00 EMaxC= 1.00D-01 BMatC= 7.19D-12 BMatP= 8.40D-11
 IDIUse=1 WtCom= 1.00D+00 WtEn= 0.00D+00
 Coeff-Com: -0.289D-02 0.304D-01 0.419D-01 0.136D+00 0.293D+00 0.502D+00
 Coeff:     -0.289D-02 0.304D-01 0.419D-01 0.136D+00 0.293D+00 0.502D+00
 Gap=     0.283 Goal=   None    Shift=    0.000
 RMSDP=1.98D-08 MaxDP=6.10D-07 DE=-5.93D-11 OVMax= 7.59D-07

 Cycle  15  Pass 1  IDiag  1:
 E= -630.179044752878     Delta-E=        0.000000000017 Rises=F Damp=F
 DIIS: error= 6.56D-08 at cycle   7 NSaved=   7.
 NSaved= 7 IEnMin= 6 EnMin= -630.179044752895     IErMin= 7 ErrMin= 6.56D-08
 ErrMax= 6.56D-08  0.00D+00 EMaxC= 1.00D-01 BMatC= 3.99D-13 BMatP= 7.19D-12
 IDIUse=1 WtCom= 1.00D+00 WtEn= 0.00D+00
 Coeff-Com: -0.361D-03 0.190D-02 0.322D-02 0.223D-01 0.549D-01 0.223D+00
 Coeff-Com:  0.695D+00
 Coeff:     -0.361D-03 0.190D-02 0.322D-02 0.223D-01 0.549D-01 0.223D+00
 Coeff:      0.695D+00
 Gap=     0.283 Goal=   None    Shift=    0.000
 RMSDP=6.25D-09 MaxDP=1.48D-07 DE= 1.73D-11 OVMax= 2.13D-07

 SCF Done:  E(RB3LYP) =  -630.179044753     A.U. after   15 cycles
            NFock= 15  Conv=0.63D-08     -V/T= 2.0085
 KE= 6.248490002002D+02 PE=-3.229402760254D+03 EE= 1.094321340375D+03
 Leave Link  502 at Wed Oct 19 22:57:11 2011, MaxMem=  128000000 cpu:      98.2
 (Enter /home/foresman/gdv/l801.exe)
 DoSCS=F DFT=T ScalE2(SS,OS)=  1.000000  1.000000
 Range of M.O.s used for correlation:     1   151
 NBasis=   151 NAE=    51 NBE=    51 NFC=     0 NFV=     0
 NROrb=    151 NOA=    51 NOB=    51 NVA=   100 NVB=   100
 Leave Link  801 at Wed Oct 19 22:57:11 2011, MaxMem=  128000000 cpu:       0.3
 (Enter /home/foresman/gdv/l1002.exe)
 Minotr:  Closed shell wavefunction.
          Direct CPHF calculation.
          Differentiating once with respect to magnetic field using GIAOs.
          Electric field/nuclear overlap derivatives assumed to be zero.
          Requested convergence is 1.0D-08 RMS, and 1.0D-07 maximum.
          Secondary convergence is 1.0D-12 RMS, and 1.0D-12 maximum.
          NewPWx=T KeepS1=F KeepF1=F KeepIn=T MapXYZ=F SortEE=F KeepMc=T.
          MDV=     127999605 using IRadAn=       2.
 Generate precomputed XC quadrature information.
 Keep R3 ints in memory in canonical form, NReq=67618787.
 FoFCou: FMM=F IPFlag=           0 FMFlag=           0 FMFlg1=           0
         NFxFlg=           0 DoJE=F BraDBF=F KetDBF=F FulRan=T
         wScrn=  0.000000 ICntrl=     600 IOpCl=  0 I1Cent=           0 NGrid=           0
         NMat0=    1 NMatS0=  11476 NMatT0=    0 NMatD0=    1 NMtDS0=    0 NMtDT0=    0
 Symmetry not used in FoFCou.
          Solving linear equations simultaneously, MaxMat=       0.
 FoFJK:  IHMeth= 1 ICntrl=    6127 DoSepK=F KAlg= 0 I1Cent=   0 FoldK=F
 IRaf=       1 NMat=   1 IRICut=       1 DoRegI=T DoRafI=F ISym2E= 0.
          There are     3 degrees of freedom in the 1st order CPHF.  IDoFFX=0 NUNeed=     3.
      3 vectors produced by pass  0 Test12= 1.70D-13 3.33D-08 XBig12= 2.79D+01 9.21D-01.
 AX will form     3 AO Fock derivatives at one time.
      3 vectors produced by pass  1 Test12= 1.70D-13 3.33D-08 XBig12= 3.40D-02 8.34D-02.
      3 vectors produced by pass  2 Test12= 1.70D-13 3.33D-08 XBig12= 2.23D-04 7.33D-03.
      3 vectors produced by pass  3 Test12= 1.70D-13 3.33D-08 XBig12= 4.76D-07 1.39D-04.
      3 vectors produced by pass  4 Test12= 1.70D-13 3.33D-08 XBig12= 1.10D-09 6.59D-06.
      3 vectors produced by pass  5 Test12= 1.70D-13 3.33D-08 XBig12= 3.16D-12 4.03D-07.
 InvSVY:  IOpt=1 It=  1 EMax= 8.88D-16
 Solved reduced A of dimension    18 with     3 vectors.
 Calculating GIAO nuclear magnetic shielding tensors.
 SCF GIAO Magnetic shielding tensor (ppm):
      1  C    Isotropic =   123.8753   Anisotropy =    69.5772
   XX=   169.1846   YX=     5.8233   ZX=    -6.5713
   XY=     5.3143   YY=    99.2181   ZY=    -0.9027
   XZ=    -6.3778   YZ=    -0.8815   ZZ=   103.2233
   Eigenvalues:    98.7406   102.6252   170.2601
      2  C    Isotropic =   173.9263   Anisotropy =    40.9436
   XX=   165.7819   YX=   -14.3008   ZX=    -1.9094
   XY=   -11.7300   YY=   195.7701   ZY=     4.4677
   XZ=    -1.5249   YZ=     4.7586   ZZ=   160.2269
   Eigenvalues:   159.6359   160.9210   201.2221
      3  C    Isotropic =   178.7236   Anisotropy =    35.4952
   XX=   171.5656   YX=     8.3047   ZX=     8.8708
   XY=     8.3352   YY=   168.3560   ZY=    10.9342
   XZ=     4.7909   YZ=     9.6247   ZZ=   196.2492
   Eigenvalues:   161.0171   172.7666   202.3871
      4  C    Isotropic =   178.7302   Anisotropy =    35.3289
   XX=   169.9883   YX=     6.5412   ZX=    -2.2550
   XY=     5.6173   YY=   173.4081   ZY=   -16.6864
   XZ=     1.5141   YZ=   -15.6089   ZZ=   192.7943
   Eigenvalues:   161.2034   172.7044   202.2828
      5  O    Isotropic =   156.8336   Anisotropy =    78.8537
   XX=   131.2275   YX=   -12.9906   ZX=     7.4248
   XY=  -135.1592   YY=   136.5935   ZY=     8.6028
   XZ=   -12.9457   YZ=    -5.5019   ZZ=   202.6799
   Eigenvalues:    59.7812   201.3169   209.4028
      6  C    Isotropic =    61.6854   Anisotropy =    62.9655
   XX=     4.0137   YX=    29.3535   ZX=    13.5218
   XY=    48.2124   YY=    88.5677   ZY=    -6.3450
   XZ=    15.0473   YZ=    -4.6486   ZZ=    92.4747
   Eigenvalues:   -13.2954    94.6891   103.6623
      7  O    Isotropic =    40.0097   Anisotropy =   383.9228
   XX=   -66.3025   YX=   -17.9749   ZX=    43.4646
   XY=    -0.4167   YY=   -99.3428   ZY=   -36.1704
   XZ=    32.4192   YZ=   -61.7592   ZZ=   285.6746
   Eigenvalues:  -106.0141   -69.9150   295.9583
      8  N    Isotropic =   179.2610   Anisotropy =   133.7834
   XX=   258.5986   YX=    22.4133   ZX=    -8.8824
   XY=    44.2866   YY=   142.6665   ZY=    -7.6300
   XZ=   -10.9032   YZ=    -4.6734   ZZ=   136.5177
   Eigenvalues:   131.1681   138.1649   268.4499
      9  C    Isotropic =   159.6611   Anisotropy =    48.8913
   XX=   162.7493   YX=    17.3056   ZX=    -1.7457
   XY=    14.7404   YY=   183.5391   ZY=    -0.2243
   XZ=    -3.7630   YZ=     1.3230   ZZ=   132.6950
   Eigenvalues:   132.3518   154.3763   192.2553
     10  C    Isotropic =   168.6906   Anisotropy =    31.1355
   XX=   169.8936   YX=    -7.3836   ZX=     7.6566
   XY=     1.3011   YY=   186.7916   ZY=    -7.7724
   XZ=    -2.7476   YZ=   -10.0956   ZZ=   149.3867
   Eigenvalues:   147.2299   169.3944   189.4476
     11  C    Isotropic =   133.2896   Anisotropy =    29.1192
   XX=   118.6822   YX=     1.7540   ZX=     1.5631
   XY=    -0.2553   YY=   130.8011   ZY=     0.8761
   XZ=    15.7543   YZ=    -4.4029   ZZ=   150.3856
   Eigenvalues:   116.3774   130.7890   152.7024
     12  C    Isotropic =   151.1604   Anisotropy =    29.0700
   XX=   168.8888   YX=    -0.9117   ZX=     8.9946
   XY=    -5.7498   YY=   150.1285   ZY=    -1.1405
   XZ=     4.8618   YZ=     9.4849   ZZ=   134.4638
   Eigenvalues:   131.8848   151.0559   170.5404
     13  O    Isotropic =   264.1822   Anisotropy =    29.6678
   XX=   265.0381   YX=    19.6114   ZX=   -21.1970
   XY=    22.8040   YY=   259.4844   ZY=    -0.9237
   XZ=    20.6542   YZ=    -5.1832   ZZ=   268.0241
   Eigenvalues:   240.7079   267.8780   283.9607
     14  H    Isotropic =    31.7316   Anisotropy =     9.5682
   XX=    35.7489   YX=    -1.7516   ZX=    -2.8564
   XY=    -1.4405   YY=    23.8053   ZY=    -0.4014
   XZ=    -1.8451   YZ=    -0.1569   ZZ=    35.6406
   Eigenvalues:    23.5666    33.5178    38.1104
     15  H    Isotropic =    31.7758   Anisotropy =     8.8458
   XX=    35.9545   YX=    -2.9858   ZX=    -1.1038
   XY=    -3.3148   YY=    31.1005   ZY=     0.6133
   XZ=    -1.1206   YZ=     0.5724   ZZ=    28.2725
   Eigenvalues:    28.1026    29.5518    37.6730
     16  H    Isotropic =    31.3635   Anisotropy =     7.9474
   XX=    29.0824   YX=    -0.6160   ZX=     0.3196
   XY=     0.2960   YY=    33.4677   ZY=     4.5721
   XZ=     0.8128   YZ=     3.5031   ZZ=    31.5405
   Eigenvalues:    28.0619    29.3668    36.6618
     17  H    Isotropic =    31.3408   Anisotropy =     8.0123
   XX=    28.8878   YX=    -1.2696   ZX=    -0.0885
   XY=    -0.5321   YY=    34.7824   ZY=    -4.0120
   XZ=    -0.4170   YZ=    -2.7852   ZZ=    30.3523
   Eigenvalues:    28.0016    29.3384    36.6824
     18  H    Isotropic =    31.9683   Anisotropy =     9.1288
   XX=    36.3041   YX=     2.2968   ZX=     2.3308
   XY=     2.5627   YY=    28.9724   ZY=     1.2350
   XZ=     2.6604   YZ=     1.2321   ZZ=    30.6283
   Eigenvalues:    28.1130    29.7377    38.0542
     19  H    Isotropic =    31.8177   Anisotropy =     7.8715
   XX=    29.6640   YX=     0.2395   ZX=     1.4018
   XY=     0.3324   YY=    29.2253   ZY=    -1.0227
   XZ=     0.5413   YZ=    -2.4748   ZZ=    36.5638
   Eigenvalues:    28.5834    29.8042    37.0654
     20  H    Isotropic =    29.8043   Anisotropy =     6.6182
   XX=    29.7329   YX=    -1.4175   ZX=     1.9486
   XY=    -2.2463   YY=    31.9667   ZY=     2.9274
   XZ=     2.5203   YZ=     4.5875   ZZ=    27.7132
   Eigenvalues:    24.0777    31.1187    34.2164
     21  H    Isotropic =    31.9638   Anisotropy =     9.1353
   XX=    35.1020   YX=     2.4622   ZX=    -2.8968
   XY=     2.7534   YY=    29.5687   ZY=    -2.0959
   XZ=    -3.1917   YZ=    -2.0821   ZZ=    31.2208
   Eigenvalues:    28.0921    29.7454    38.0540
     22  H    Isotropic =    29.8125   Anisotropy =     6.6103
   XX=    28.6919   YX=    -1.8775   ZX=    -2.5484
   XY=    -2.2535   YY=    33.0600   ZY=    -1.5609
   XZ=    -3.1704   YZ=    -3.3755   ZZ=    27.6857
   Eigenvalues:    24.1261    31.0921    34.2194
     23  H    Isotropic =    31.8477   Anisotropy =     7.7676
   XX=    29.6837   YX=     0.7182   ZX=     0.2335
   XY=     0.3402   YY=    28.9039   ZY=    -0.4494
   XZ=     1.0976   YZ=     0.9278   ZZ=    36.9555
   Eigenvalues:    28.6355    29.8815    37.0261
     24  H    Isotropic =    29.5139   Anisotropy =     7.5664
   XX=    29.2891   YX=     0.1709   ZX=    -1.5844
   XY=     0.0949   YY=    30.5284   ZY=     4.6258
   XZ=    -2.1734   YZ=     4.5887   ZZ=    28.7242
   Eigenvalues:    24.4339    29.5496    34.5581
     25  H    Isotropic =    29.7257   Anisotropy =     7.5321
   XX=    30.9062   YX=    -0.4377   ZX=     1.1643
   XY=    -1.1814   YY=    31.4088   ZY=    -4.7375
   XZ=     1.9470   YZ=    -4.1945   ZZ=    26.8619
   Eigenvalues:    24.0020    30.4279    34.7471
     26  H    Isotropic =    30.8363   Anisotropy =    10.1815
   XX=    30.1365   YX=     0.7619   ZX=    -2.6603
   XY=     1.3720   YY=    28.4467   ZY=    -4.0257
   XZ=    -3.8451   YZ=    -4.1304   ZZ=    33.9256
   Eigenvalues:    26.1516    28.7332    37.6239
     27  H    Isotropic =    30.9657   Anisotropy =    10.4696
   XX=    32.2471   YX=     4.0827   ZX=     1.0851
   XY=     5.1349   YY=    33.7068   ZY=     2.1168
   XZ=     1.3204   YZ=     0.6254   ZZ=    26.9434
   Eigenvalues:    26.6407    28.3110    37.9455
     28  H    Isotropic =    28.8720   Anisotropy =     8.5384
   XX=    32.6858   YX=    -2.5719   ZX=    -1.5902
   XY=    -3.2639   YY=    26.1032   ZY=     0.4583
   XZ=    -2.8463   YZ=     0.6944   ZZ=    27.8269
   Eigenvalues:    24.9689    27.0828    34.5643
     29  H    Isotropic =    29.3674   Anisotropy =     8.0909
   XX=    29.3116   YX=    -1.7651   ZX=     0.2625
   XY=    -1.1757   YY=    34.0043   ZY=    -2.0391
   XZ=     0.6651   YZ=    -1.4950   ZZ=    24.7864
   Eigenvalues:    24.4516    28.8893    34.7614
     30  H    Isotropic =    29.5599   Anisotropy =     9.6496
   XX=    28.6608   YX=    -1.9001   ZX=    -1.1573
   XY=    -1.6649   YY=    28.0343   ZY=     4.2178
   XZ=    -1.5724   YZ=     5.7493   ZZ=    31.9845
   Eigenvalues:    24.5145    28.1722    35.9930
 End of Minotr F.D. properties file   721 does not exist.
 End of Minotr F.D. properties file   722 does not exist.
 Leave Link 1002 at Wed Oct 19 22:57:21 2011, MaxMem=  128000000 cpu:      80.9
 (Enter /home/foresman/gdv/l1101.exe)
 Using compressed storage, NAtomX=    30.
 Will process     31 centers per pass.
 Leave Link 1101 at Wed Oct 19 22:57:21 2011, MaxMem=  128000000 cpu:       1.8
 (Enter /home/foresman/gdv/l1102.exe)
 Symmetrizing basis deriv contribution to polar:
 IMax=3 JMax=2 DiffMx= 0.00D+00
 Leave Link 1102 at Wed Oct 19 22:57:21 2011, MaxMem=  128000000 cpu:       0.4
 (Enter /home/foresman/gdv/l1110.exe)
 Forming Gx(P) for the SCF density, NAtomX=    30.
 Integral derivatives from FoFJK, PRISM(SPDF).
 Do as many integral derivatives as possible in FoFJK.
 G2DrvN: MDV=     127999656.
 G2DrvN: will do    31 centers at a time, making    1 passes.
 Calling FoFCou, ICntrl=  3107 FMM=F I1Cent=   0 AccDes= 0.00D+00.
 FoFJK:  IHMeth= 1 ICntrl=    3107 DoSepK=F KAlg= 0 I1Cent=   0 FoldK=F
 IRaf=       0 NMat=   1 IRICut=       1 DoRegI=T DoRafI=F ISym2E= 0.
 FoFCou: FMM=F IPFlag=           0 FMFlag=      100000 FMFlg1=           0
         NFxFlg=           0 DoJE=F BraDBF=F KetDBF=F FulRan=T
         wScrn=  0.000000 ICntrl=    3107 IOpCl=  0 I1Cent=           0 NGrid=           0
         NMat0=    1 NMatS0=      1 NMatT0=    0 NMatD0=    1 NMtDS0=    0 NMtDT0=    0
 Symmetry not used in FoFCou.
 End of G2Drv F.D. properties file   721 does not exist.
 End of G2Drv F.D. properties file   722 does not exist.
 Leave Link 1110 at Wed Oct 19 22:57:53 2011, MaxMem=  128000000 cpu:     256.2
 (Enter /home/foresman/gdv/l1002.exe)
 Minotr:  Closed shell wavefunction.
          IDoAtm=111111111111111111111111111111
          Direct CPHF calculation.
          Differentiating once with respect to electric field.
                with respect to dipole field.
          Differentiating once with respect to nuclear coordinates.
          Requested convergence is 1.0D-08 RMS, and 1.0D-07 maximum.
          Secondary convergence is 1.0D-12 RMS, and 1.0D-12 maximum.
          NewPWx=T KeepS1=F KeepF1=F KeepIn=T MapXYZ=F SortEE=F KeepMc=T.
          MDV=     127999545 using IRadAn=       2.
 Generate precomputed XC quadrature information.
 Keep R1 ints in memory in canonical form, NReq=67619516.
 FoFCou: FMM=F IPFlag=           0 FMFlag=           0 FMFlg1=           0
         NFxFlg=           0 DoJE=F BraDBF=F KetDBF=F FulRan=T
         wScrn=  0.000000 ICntrl=     600 IOpCl=  0 I1Cent=           0 NGrid=           0
         NMat0=    1 NMatS0=  11476 NMatT0=    0 NMatD0=    1 NMtDS0=    0 NMtDT0=    0
 Symmetry not used in FoFCou.
          Solving linear equations simultaneously, MaxMat=       0.
          There are    93 degrees of freedom in the 1st order CPHF.  IDoFFX=5 NUNeed=    93.
     90 vectors produced by pass  0 Test12= 5.48D-15 1.08D-09 XBig12= 7.46D+01 3.44D+00.
 AX will form    90 AO Fock derivatives at one time.
     90 vectors produced by pass  1 Test12= 5.48D-15 1.08D-09 XBig12= 1.65D+01 1.26D+00.
     90 vectors produced by pass  2 Test12= 5.48D-15 1.08D-09 XBig12= 6.25D-02 2.29D-02.
     90 vectors produced by pass  3 Test12= 5.48D-15 1.08D-09 XBig12= 8.74D-05 1.11D-03.
     90 vectors produced by pass  4 Test12= 5.48D-15 1.08D-09 XBig12= 6.21D-08 2.34D-05.
     43 vectors produced by pass  5 Test12= 5.48D-15 1.08D-09 XBig12= 3.40D-11 5.78D-07.
      3 vectors produced by pass  6 Test12= 5.48D-15 1.08D-09 XBig12= 1.55D-14 1.12D-08.
 InvSVY:  IOpt=1 It=  1 EMax= 4.44D-15
 Solved reduced A of dimension   496 with    93 vectors.
 FullF1:  Do perturbations    1 to     3.
 Isotropic polarizability for W=    0.000000      102.85 Bohr**3.
 Dipole-magnetic dipole polarizability for W=    0.000000:
                 1             2             3 
      1  -0.319353D+01 -0.112951D+02 -0.101887D+02
      2   0.900301D+01  0.233523D+01 -0.119571D+02
      3   0.222336D+01  0.110475D+02  0.850375D+00
 DQ contribution to OR G for W=    0.000000:
                 1             2             3 
      1  -0.312131D+01 -0.223181D+02 -0.443145D+02
      2   0.214370D+02 -0.746543D-03 -0.593627D+02
      3   0.291817D+02  0.712490D+02  0.312206D+01
 Optical Rotation G' tensor for W=    0.000000:
                 1             2             3 
      1   0.812478D+00  0.462892D+00  0.997339D-01
      2   0.462892D+00 -0.117177D+01  0.171317D+01
      3   0.997339D-01  0.171317D+01  0.351365D+00
 OR G Eigenvalues:    -2.3209     0.7019     1.6111  Iso=     0.0026
 Eigenvectors:
   (1)  -0.106930   0.838836  -0.533779
   (2)   0.910454  -0.133128  -0.391599
   (3)   0.399548   0.527855   0.749487
 w=    0.000000 a.u., Optical Rotation Beta=      0.0026 au.
 Molar Mass =    187.2382 grams/mole, [Alpha]D (static) =        0.55 deg.
 AAT (total):
 -0.0222 -0.0520 -0.1762
 -0.0193  0.0006 -0.3678
  0.1076  0.3577  0.0076
  0.0087 -0.0138  0.1647
  0.0224 -0.0186  0.1879
 -0.1049 -0.0247  0.0087
  0.0464  0.1810 -0.1332
 -0.1357 -0.1123  0.1900
  0.0248 -0.2306  0.0913
 -0.0616 -0.1721 -0.1721
  0.1545  0.1229  0.1962
  0.0580 -0.1636 -0.0695
  0.0065  0.0972  0.3816
  0.0152 -0.0378  0.2212
 -0.5667 -0.4448 -0.0150
  0.0827 -0.2812  0.7105
  0.1716 -0.0335  0.3162
 -0.2243  0.1119 -0.0391
 -0.0050  0.1613 -1.0790
 -0.2012  0.0802 -0.1544
  1.0669 -0.2475 -0.0474
 -0.0640  0.1750 -0.3125
 -0.0561  0.1219 -0.4595
  0.0590  0.4292 -0.0105
 -0.0101 -0.1340 -0.0507
  0.1252 -0.0624  0.3217
 -0.0190 -0.2122  0.1007
  0.0258  0.1508  0.1224
 -0.1610 -0.1699 -0.3681
 -0.0786  0.0851 -0.0162
 -0.0290 -0.0250  0.1334
 -0.1478  0.1031  0.6785
 -0.1100 -1.1785 -0.1401
  0.0069  0.1938 -0.0862
 -0.1044  0.0457  0.0075
  0.0581 -0.1017  0.0710
  0.0870 -0.1346 -0.2006
  0.7543 -0.1470 -1.0932
  0.1168  1.3094  0.0896
 -0.0577 -0.1073  0.0846
 -0.3579  0.0713  0.4119
  0.0207 -0.1853  0.0051
  0.0242  0.0266  0.1658
 -0.0238 -0.0023 -0.2280
  0.0472  0.2732 -0.0194
 -0.0693  0.0210 -0.0304
 -0.1886 -0.1008  0.0699
 -0.0236 -0.1936  0.2129
  0.0421 -0.0589 -0.0961
  0.2120  0.1190  0.0848
 -0.0305 -0.1358 -0.2091
 -0.0251  0.1567  0.0019
  0.0240  0.0148 -0.2752
 -0.0219  0.2140  0.0100
 -0.0410 -0.0963 -0.0347
  0.0599  0.2017  0.0478
  0.1978 -0.1796 -0.1119
 -0.0293 -0.0674  0.2329
 -0.0273 -0.0829  0.1552
 -0.1939  0.0069  0.1349
  0.0120 -0.0803 -0.0229
 -0.0605 -0.0047 -0.2661
 -0.0377  0.2362 -0.0093
  0.0434  0.0049  0.2048
  0.0955  0.0399  0.1728
 -0.2200  0.0418 -0.1060
  0.0698  0.0438 -0.0171
 -0.0829 -0.1673  0.0168
  0.1820 -0.2360  0.0443
  0.0385  0.1651 -0.0756
 -0.1536 -0.0117 -0.0310
 -0.1516  0.0555 -0.1204
 -0.0525 -0.1144 -0.0431
  0.1303 -0.0173 -0.1116
 -0.0199  0.0645  0.1556
  0.0282 -0.1649  0.0188
  0.1616 -0.0305  0.0889
 -0.1021  0.1886  0.0144
 -0.0312  0.1346 -0.1610
 -0.1639  0.1133  0.0728
  0.1066 -0.0975 -0.0947
  0.0021 -0.0659  0.0994
  0.0309  0.0024  0.1299
 -0.0111 -0.0394 -0.0074
 -0.0622  0.0711  0.1764
 -0.1572 -0.0296 -0.0096
 -0.0704  0.0269  0.1421
  0.0075 -0.1009  0.0228
  0.1533 -0.0080  0.0679
  0.1335  0.1655 -0.0585
 End of Minotr F.D. properties file   721 does not exist.
 End of Minotr F.D. properties file   722 does not exist.
 Leave Link 1002 at Wed Oct 19 22:58:22 2011, MaxMem=  128000000 cpu:     233.6
 (Enter /home/foresman/gdv/l601.exe)
 Copying SCF densities to generalized density rwf, IOpCl= 0 IROHF=0.

 **********************************************************************

            Population analysis using the SCF density.

 **********************************************************************

 Orbital symmetries:
       Occupied  (A) (A) (A) (A) (A) (A) (A) (A) (A) (A) (A) (A)
                 (A) (A) (A) (A) (A) (A) (A) (A) (A) (A) (A) (A)
                 (A) (A) (A) (A) (A) (A) (A) (A) (A) (A) (A) (A)
                 (A) (A) (A) (A) (A) (A) (A) (A) (A) (A) (A) (A)
                 (A) (A) (A)
       Virtual   (A) (A) (A) (A) (A) (A) (A) (A) (A) (A) (A) (A)
                 (A) (A) (A) (A) (A) (A) (A) (A) (A) (A) (A) (A)
                 (A) (A) (A) (A) (A) (A) (A) (A) (A) (A) (A) (A)
                 (A) (A) (A) (A) (A) (A) (A) (A) (A) (A) (A) (A)
                 (A) (A) (A) (A) (A) (A) (A) (A) (A) (A) (A) (A)
                 (A) (A) (A) (A) (A) (A) (A) (A) (A) (A) (A) (A)
                 (A) (A) (A) (A) (A) (A) (A) (A) (A) (A) (A) (A)
                 (A) (A) (A) (A) (A) (A) (A) (A) (A) (A) (A) (A)
                 (A) (A) (A) (A)
 The electronic state is 1-A.
 Alpha  occ. eigenvalues --  -19.06227 -19.02597 -19.00079 -14.28343 -10.26454
 Alpha  occ. eigenvalues --  -10.19045 -10.18320 -10.16760 -10.16181 -10.13214
 Alpha  occ. eigenvalues --  -10.11208 -10.10410 -10.10364  -1.08267  -1.01178
 Alpha  occ. eigenvalues --   -0.99886  -0.94226  -0.81156  -0.78217  -0.74479
 Alpha  occ. eigenvalues --   -0.69254  -0.68868  -0.66031  -0.60543  -0.58407
 Alpha  occ. eigenvalues --   -0.55224  -0.50656  -0.50126  -0.47765  -0.45582
 Alpha  occ. eigenvalues --   -0.45203  -0.45026  -0.44453  -0.42675  -0.42208
 Alpha  occ. eigenvalues --   -0.41113  -0.39533  -0.38701  -0.38382  -0.37921
 Alpha  occ. eigenvalues --   -0.37103  -0.36674  -0.36311  -0.34307  -0.34264
 Alpha  occ. eigenvalues --   -0.32531  -0.31325  -0.27195  -0.25779  -0.24826
 Alpha  occ. eigenvalues --   -0.23178
 Alpha virt. eigenvalues --    0.05139   0.08328   0.10233   0.11506   0.12750
 Alpha virt. eigenvalues --    0.13355   0.14818   0.15711   0.16427   0.16790
 Alpha virt. eigenvalues --    0.17490   0.18123   0.18887   0.19367   0.19442
 Alpha virt. eigenvalues --    0.20024   0.20995   0.21552   0.21724   0.23377
 Alpha virt. eigenvalues --    0.23727   0.24489   0.25094   0.25197   0.26400
 Alpha virt. eigenvalues --    0.27914   0.28045   0.28922   0.29694   0.41714
 Alpha virt. eigenvalues --    0.48519   0.64763   0.65503   0.65993   0.66965
 Alpha virt. eigenvalues --    0.68031   0.69151   0.69970   0.71423   0.73834
 Alpha virt. eigenvalues --    0.74237   0.74786   0.75994   0.76165   0.77470
 Alpha virt. eigenvalues --    0.79973   0.82269   0.82649   0.85907   0.87386
 Alpha virt. eigenvalues --    0.88435   0.92588   0.93503   0.95452   0.96665
 Alpha virt. eigenvalues --    0.98329   1.00173   1.01226   1.02229   1.03486
 Alpha virt. eigenvalues --    1.06274   1.07126   1.07599   1.08259   1.09541
 Alpha virt. eigenvalues --    1.09596   1.09914   1.10664   1.11533   1.13288
 Alpha virt. eigenvalues --    1.13550   1.14880   1.15969   1.17678   1.22010
 Alpha virt. eigenvalues --    1.28372   1.44132   1.52925   1.54980   1.57571
 Alpha virt. eigenvalues --    1.60629   1.63244   1.66056   1.70916   1.72003
 Alpha virt. eigenvalues --    1.73912   1.77309   1.78681   1.86110   1.95422
 Alpha virt. eigenvalues --    1.98625   1.98755   2.09031   2.13772   2.28141
 Alpha virt. eigenvalues --    2.34619   2.82864   3.11993   3.30866   3.40261
          Condensed to atoms (all electrons):
              1          2          3          4          5          6
     1  C    5.288542   0.289036   0.249350   0.249152   0.195555  -0.050349
     2  C    0.289036   5.352706  -0.081801  -0.081886  -0.038833   0.003851
     3  C    0.249350  -0.081801   5.472234  -0.084440  -0.036039  -0.007912
     4  C    0.249152  -0.081886  -0.084440   5.473585  -0.035923  -0.007902
     5  O    0.195555  -0.038833  -0.036039  -0.035923   8.329171   0.230533
     6  C   -0.050349   0.003851  -0.007912  -0.007902   0.230533   4.287227
     7  O    0.001288   0.000064  -0.009445  -0.009653  -0.045753   0.472313
     8  N    0.002810  -0.000045  -0.000287  -0.000289  -0.079389   0.197127
     9  C   -0.000113  -0.000047   0.000028   0.000024   0.009737  -0.030013
    10  C   -0.000004   0.000000   0.000000   0.000000   0.000265   0.003133
    11  C    0.000001   0.000000   0.000000   0.000000  -0.000030   0.005597
    12  C   -0.000073   0.000001   0.000004   0.000003   0.001538  -0.047780
    13  O    0.000000   0.000000   0.000000   0.000000   0.000000  -0.000068
    14  H    0.000000   0.000000   0.000000   0.000000  -0.000009  -0.000168
    15  H   -0.044564   0.350941   0.001155   0.001194   0.001892  -0.000039
    16  H   -0.038468   0.360427   0.004526  -0.003549   0.001954  -0.000004
    17  H   -0.038490   0.360405  -0.003533   0.004528   0.001962  -0.000005
    18  H   -0.035838  -0.000458   0.340938   0.000824   0.001566   0.000333
    19  H   -0.040263  -0.003118   0.358264   0.004334   0.001036   0.000469
    20  H   -0.036446   0.003573   0.343880  -0.004068  -0.003551   0.001924
    21  H   -0.035809  -0.000407   0.000810   0.340846   0.001563   0.000335
    22  H   -0.036494   0.003566  -0.004015   0.343162  -0.003609   0.001982
    23  H   -0.040319  -0.003146   0.004335   0.358147   0.001020   0.000470
    24  H   -0.000020   0.000010   0.000005  -0.000009   0.002071  -0.002078
    25  H   -0.000037   0.000015  -0.000013   0.000008   0.003351  -0.001436
    26  H    0.000000   0.000000   0.000000   0.000000   0.000000  -0.000099
    27  H    0.000000   0.000000   0.000000   0.000000   0.000000  -0.000011
    28  H    0.000000   0.000000   0.000000   0.000000   0.000000  -0.000041
    29  H    0.000001   0.000000   0.000001  -0.000001   0.000051   0.001122
    30  H    0.000001   0.000000  -0.000001   0.000000  -0.000003  -0.001636
              7          8          9         10         11         12
     1  C    0.001288   0.002810  -0.000113  -0.000004   0.000001  -0.000073
     2  C    0.000064  -0.000045  -0.000047   0.000000   0.000000   0.000001
     3  C   -0.009445  -0.000287   0.000028   0.000000   0.000000   0.000004
     4  C   -0.009653  -0.000289   0.000024   0.000000   0.000000   0.000003
     5  O   -0.045753  -0.079389   0.009737   0.000265  -0.000030   0.001538
     6  C    0.472313   0.197127  -0.030013   0.003133   0.005597  -0.047780
     7  O    8.138701  -0.069466   0.001145  -0.000027   0.000166   0.002505
     8  N   -0.069466   7.424522   0.231143  -0.056011  -0.062245   0.241139
     9  C    0.001145   0.231143   5.195126   0.236875  -0.074247  -0.082390
    10  C   -0.000027  -0.056011   0.236875   5.648060   0.169442  -0.106032
    11  C    0.000166  -0.062245  -0.074247   0.169442   5.291714   0.192597
    12  C    0.002505   0.241139  -0.082390  -0.106032   0.192597   5.367837
    13  O    0.000000  -0.001596   0.003294  -0.051859   0.275703  -0.041200
    14  H   -0.000018   0.007793   0.004861  -0.004495  -0.061131  -0.005820
    15  H    0.000002   0.000000   0.000001   0.000000   0.000000   0.000000
    16  H    0.000001  -0.000006   0.000017   0.000000   0.000000   0.000000
    17  H    0.000001  -0.000006   0.000012   0.000000   0.000000   0.000000
    18  H    0.000081   0.000001   0.000000   0.000000   0.000000   0.000000
    19  H    0.000029  -0.000008  -0.000001   0.000000   0.000000   0.000000
    20  H    0.023260   0.000134  -0.000010   0.000000   0.000000   0.000004
    21  H    0.000084   0.000001   0.000000   0.000000   0.000000   0.000000
    22  H    0.023654   0.000144  -0.000009   0.000000   0.000000   0.000004
    23  H    0.000035  -0.000008   0.000001   0.000000   0.000000   0.000000
    24  H    0.000007  -0.041881   0.365587  -0.040484   0.000669   0.003242
    25  H    0.000018  -0.037080   0.373314  -0.033616   0.003890   0.001834
    26  H    0.000000   0.001206  -0.037162   0.328395  -0.029324   0.005057
    27  H    0.000000   0.002152  -0.034436   0.368016  -0.033448   0.005193
    28  H    0.000000   0.002373   0.004246  -0.049343   0.382791  -0.043329
    29  H    0.005236  -0.037208   0.002347   0.005656  -0.030006   0.360942
    30  H    0.000402  -0.041279   0.003039   0.001145  -0.034852   0.331652
             13         14         15         16         17         18
     1  C    0.000000   0.000000  -0.044564  -0.038468  -0.038490  -0.035838
     2  C    0.000000   0.000000   0.350941   0.360427   0.360405  -0.000458
     3  C    0.000000   0.000000   0.001155   0.004526  -0.003533   0.340938
     4  C    0.000000   0.000000   0.001194  -0.003549   0.004528   0.000824
     5  O    0.000000  -0.000009   0.001892   0.001954   0.001962   0.001566
     6  C   -0.000068  -0.000168  -0.000039  -0.000004  -0.000005   0.000333
     7  O    0.000000  -0.000018   0.000002   0.000001   0.000001   0.000081
     8  N   -0.001596   0.007793   0.000000  -0.000006  -0.000006   0.000001
     9  C    0.003294   0.004861   0.000001   0.000017   0.000012   0.000000
    10  C   -0.051859  -0.004495   0.000000   0.000000   0.000000   0.000000
    11  C    0.275703  -0.061131   0.000000   0.000000   0.000000   0.000000
    12  C   -0.041200  -0.005820   0.000000   0.000000   0.000000   0.000000
    13  O    8.134833   0.247150   0.000000   0.000000   0.000000   0.000000
    14  H    0.247150   0.469229   0.000000   0.000000   0.000000   0.000000
    15  H    0.000000   0.000000   0.547302  -0.023851  -0.023810   0.001665
    16  H    0.000000   0.000000  -0.023851   0.524757  -0.025881  -0.000081
    17  H    0.000000   0.000000  -0.023810  -0.025881   0.524537   0.000157
    18  H    0.000000   0.000000   0.001665  -0.000081   0.000157   0.551814
    19  H    0.000000   0.000000   0.000122  -0.000049   0.003743  -0.024586
    20  H    0.000000   0.000000   0.000009  -0.000084  -0.000046  -0.020769
    21  H    0.000000   0.000000   0.001641   0.000155  -0.000082   0.001182
    22  H    0.000000   0.000000   0.000011  -0.000046  -0.000085   0.000214
    23  H    0.000000   0.000000   0.000120   0.003765  -0.000048  -0.000069
    24  H    0.001223  -0.000727   0.000000   0.000055  -0.000011   0.000000
    25  H    0.000013   0.000118   0.000000  -0.000013   0.000088   0.000000
    26  H    0.001814   0.000025   0.000000   0.000000   0.000000   0.000000
    27  H    0.002001  -0.000553   0.000000   0.000000   0.000000   0.000000
    28  H   -0.030820   0.005846   0.000000   0.000000   0.000000   0.000000
    29  H    0.001554  -0.001031   0.000000   0.000000   0.000000   0.000000
    30  H    0.001723   0.000366   0.000000   0.000000   0.000000   0.000000
             19         20         21         22         23         24
     1  C   -0.040263  -0.036446  -0.035809  -0.036494  -0.040319  -0.000020
     2  C   -0.003118   0.003573  -0.000407   0.003566  -0.003146   0.000010
     3  C    0.358264   0.343880   0.000810  -0.004015   0.004335   0.000005
     4  C    0.004334  -0.004068   0.340846   0.343162   0.358147  -0.000009
     5  O    0.001036  -0.003551   0.001563  -0.003609   0.001020   0.002071
     6  C    0.000469   0.001924   0.000335   0.001982   0.000470  -0.002078
     7  O    0.000029   0.023260   0.000084   0.023654   0.000035   0.000007
     8  N   -0.000008   0.000134   0.000001   0.000144  -0.000008  -0.041881
     9  C   -0.000001  -0.000010   0.000000  -0.000009   0.000001   0.365587
    10  C    0.000000   0.000000   0.000000   0.000000   0.000000  -0.040484
    11  C    0.000000   0.000000   0.000000   0.000000   0.000000   0.000669
    12  C    0.000000   0.000004   0.000000   0.000004   0.000000   0.003242
    13  O    0.000000   0.000000   0.000000   0.000000   0.000000   0.001223
    14  H    0.000000   0.000000   0.000000   0.000000   0.000000  -0.000727
    15  H    0.000122   0.000009   0.001641   0.000011   0.000120   0.000000
    16  H   -0.000049  -0.000084   0.000155  -0.000046   0.003765   0.000055
    17  H    0.003743  -0.000046  -0.000082  -0.000085  -0.000048  -0.000011
    18  H   -0.024586  -0.020769   0.001182   0.000214  -0.000069   0.000000
    19  H    0.534990  -0.023413  -0.000068   0.000008  -0.000098  -0.000001
    20  H   -0.023413   0.483115   0.000221   0.002897   0.000009   0.000000
    21  H   -0.000068   0.000221   0.551531  -0.020635  -0.024656   0.000000
    22  H    0.000008   0.002897  -0.020635   0.483336  -0.023377   0.000003
    23  H   -0.000098   0.000009  -0.024656  -0.023377   0.536354   0.000011
    24  H   -0.000001   0.000000   0.000000   0.000003   0.000011   0.542181
    25  H    0.000019   0.000004   0.000000  -0.000001  -0.000001  -0.039043
    26  H    0.000000   0.000000   0.000000   0.000000   0.000000   0.003270
    27  H    0.000000   0.000000   0.000000   0.000000   0.000000  -0.002311
    28  H    0.000000   0.000000   0.000000   0.000000   0.000000  -0.000072
    29  H    0.000000  -0.000004   0.000000   0.000007   0.000000   0.000035
    30  H    0.000000   0.000003   0.000000  -0.000001   0.000000  -0.000245
             25         26         27         28         29         30
     1  C   -0.000037   0.000000   0.000000   0.000000   0.000001   0.000001
     2  C    0.000015   0.000000   0.000000   0.000000   0.000000   0.000000
     3  C   -0.000013   0.000000   0.000000   0.000000   0.000001  -0.000001
     4  C    0.000008   0.000000   0.000000   0.000000  -0.000001   0.000000
     5  O    0.003351   0.000000   0.000000   0.000000   0.000051  -0.000003
     6  C   -0.001436  -0.000099  -0.000011  -0.000041   0.001122  -0.001636
     7  O    0.000018   0.000000   0.000000   0.000000   0.005236   0.000402
     8  N   -0.037080   0.001206   0.002152   0.002373  -0.037208  -0.041279
     9  C    0.373314  -0.037162  -0.034436   0.004246   0.002347   0.003039
    10  C   -0.033616   0.328395   0.368016  -0.049343   0.005656   0.001145
    11  C    0.003890  -0.029324  -0.033448   0.382791  -0.030006  -0.034852
    12  C    0.001834   0.005057   0.005193  -0.043329   0.360942   0.331652
    13  O    0.000013   0.001814   0.002001  -0.030820   0.001554   0.001723
    14  H    0.000118   0.000025  -0.000553   0.005846  -0.001031   0.000366
    15  H    0.000000   0.000000   0.000000   0.000000   0.000000   0.000000
    16  H   -0.000013   0.000000   0.000000   0.000000   0.000000   0.000000
    17  H    0.000088   0.000000   0.000000   0.000000   0.000000   0.000000
    18  H    0.000000   0.000000   0.000000   0.000000   0.000000   0.000000
    19  H    0.000019   0.000000   0.000000   0.000000   0.000000   0.000000
    20  H    0.000004   0.000000   0.000000   0.000000  -0.000004   0.000003
    21  H    0.000000   0.000000   0.000000   0.000000   0.000000   0.000000
    22  H   -0.000001   0.000000   0.000000   0.000000   0.000007  -0.000001
    23  H   -0.000001   0.000000   0.000000   0.000000   0.000000   0.000000
    24  H   -0.039043   0.003270  -0.002311  -0.000072   0.000035  -0.000245
    25  H    0.512731  -0.004751   0.000854  -0.000019  -0.000115   0.000545
    26  H   -0.004751   0.551665  -0.020993  -0.000215  -0.000112  -0.000161
    27  H    0.000854  -0.020993   0.496892  -0.000903  -0.000069  -0.000170
    28  H   -0.000019  -0.000215  -0.000903   0.513804  -0.001032   0.001248
    29  H   -0.000115  -0.000112  -0.000069  -0.001032   0.486174  -0.031298
    30  H    0.000545  -0.000161  -0.000170   0.001248  -0.031298   0.564183
 Mulliken charges:
              1
     1  C    0.121550
     2  C   -0.514855
     3  C   -0.548043
     4  C   -0.548088
     5  O   -0.540125
     6  C    0.943123
     7  O   -0.534632
     8  N   -0.683741
     9  C   -0.172368
    10  C   -0.419118
    11  C    0.002714
    12  C   -0.186927
    13  O   -0.543764
    14  H    0.338562
    15  H    0.186209
    16  H    0.196375
    17  H    0.196564
    18  H    0.183027
    19  H    0.188591
    20  H    0.229357
    21  H    0.183287
    22  H    0.229282
    23  H    0.187455
    24  H    0.208513
    25  H    0.219325
    26  H    0.201384
    27  H    0.217787
    28  H    0.215466
    29  H    0.237751
    30  H    0.205338
 Sum of Mulliken charges =   0.00000
 Mulliken charges with hydrogens summed into heavy atoms:
              1
     1  C    0.121550
     2  C    0.064293
     3  C    0.052932
     4  C    0.051936
     5  O   -0.540125
     6  C    0.943123
     7  O   -0.534632
     8  N   -0.683741
     9  C    0.255470
    10  C    0.000053
    11  C    0.218180
    12  C    0.256162
    13  O   -0.205202
 Sum of Mulliken charges with hydrogens summed into heavy atoms =   0.00000
 APT charges:
              1
     1  C    0.650898
     2  C   -0.028759
     3  C   -0.107630
     4  C   -0.107796
     5  O   -0.962951
     6  C    1.433751
     7  O   -0.778612
     8  N   -0.881577
     9  C    0.325580
    10  C   -0.014019
    11  C    0.433106
    12  C    0.262931
    13  O   -0.495756
    14  H    0.215088
    15  H   -0.000265
    16  H    0.008535
    17  H    0.008911
    18  H    0.000711
    19  H    0.001590
    20  H    0.079406
    21  H    0.000815
    22  H    0.079596
    23  H    0.000863
    24  H   -0.032629
    25  H   -0.017944
    26  H   -0.014835
    27  H    0.006671
    28  H   -0.023398
    29  H    0.018886
    30  H   -0.061166
 Sum of APT charges =   0.00000
 APT charges with hydrogens summed into heavy atoms:
              1
     1  C    0.650898
     2  C   -0.011578
     3  C   -0.025923
     4  C   -0.026523
     5  O   -0.962951
     6  C    1.433751
     7  O   -0.778612
     8  N   -0.881577
     9  C    0.275007
    10  C   -0.022183
    11  C    0.409708
    12  C    0.220651
    13  O   -0.280668
 Sum of APT charges with hydrogens summed into heavy atoms =   0.00000
 Electronic spatial extent (au):  <R**2>=           3092.1972
 Charge=              0.0000 electrons
 Dipole moment (field-independent basis, Debye):
    X=             -0.4203    Y=              2.3574    Z=             -0.8558  Tot=              2.5429
 Quadrupole moment (field-independent basis, Debye-Ang):
   XX=            -78.1437   YY=            -82.5572   ZZ=            -78.1712
   XY=             -0.4382   XZ=             -7.2871   YZ=             -0.0929
 Traceless Quadrupole moment (field-independent basis, Debye-Ang):
   XX=              1.4803   YY=             -2.9332   ZZ=              1.4528
   XY=             -0.4382   XZ=             -7.2871   YZ=             -0.0929
 Octapole moment (field-independent basis, Debye-Ang**2):
  XXX=            -37.4103  YYY=              6.7442  ZZZ=              4.7597  XYY=             12.3219
  XXY=              1.6483  XXZ=            -28.5296  XZZ=             -0.9910  YZZ=              0.4631
  YYZ=              2.5665  XYZ=              4.1464
 Hexadecapole moment (field-independent basis, Debye-Ang**3):
 XXXX=          -3109.3969 YYYY=           -598.6989 ZZZZ=           -369.3461 XXXY=              9.6666
 XXXZ=           -116.7217 YYYX=             -7.1930 YYYZ=             -3.5219 ZZZX=             13.5913
 ZZZY=              2.5696 XXYY=           -601.4606 XXZZ=           -611.9811 YYZZ=           -156.9990
 XXYZ=             13.6216 YYXZ=              6.1683 ZZXY=              0.2382
 N-N= 8.800533749256D+02 E-N=-3.229402761813D+03  KE= 6.248490002002D+02
  Exact polarizability: 127.719   1.434  94.725  -4.822   0.788  86.093
 Approx polarizability: 150.970   5.023 144.381  -4.349   2.492 120.242
 Calculating spin-rotation constants.
 Leave Link  601 at Wed Oct 19 22:58:27 2011, MaxMem=  128000000 cpu:      32.1
 (Enter /home/foresman/gdv/l701.exe)
 Compute integral second derivatives.
 ... and contract with generalized density number  0.
 Leave Link  701 at Wed Oct 19 22:58:27 2011, MaxMem=  128000000 cpu:       1.3
 (Enter /home/foresman/gdv/l702.exe)
 L702 exits ... SP integral derivatives will be done elsewhere.
 Leave Link  702 at Wed Oct 19 22:58:27 2011, MaxMem=  128000000 cpu:       0.3
 (Enter /home/foresman/gdv/l703.exe)
 Compute integral second derivatives, UseDBF=F ICtDFT=           0.
 Integral derivatives from FoFJK, PRISM(SPDF).
 Calling FoFJK, ICntrl=    100127 FMM=F ISym2X=0 I1Cent= 0 IOpClX= 0 NMat=1 NMatS=1 NMatT=0.
 FoFJK:  IHMeth= 1 ICntrl=  100127 DoSepK=F KAlg= 0 I1Cent=   0 FoldK=F
 IRaf=       0 NMat=   1 IRICut=       1 DoRegI=T DoRafI=F ISym2E= 0.
 FoFCou: FMM=F IPFlag=           0 FMFlag=      100000 FMFlg1=         800
         NFxFlg=           0 DoJE=F BraDBF=F KetDBF=F FulRan=T
         wScrn=  0.000000 ICntrl=  100127 IOpCl=  0 I1Cent=           0 NGrid=           0
         NMat0=    1 NMatS0=      1 NMatT0=    0 NMatD0=    1 NMtDS0=    0 NMtDT0=    0
 Symmetry not used in FoFCou.
 Leave Link  703 at Wed Oct 19 22:59:01 2011, MaxMem=  128000000 cpu:     274.7
 (Enter /home/foresman/gdv/l716.exe)
 Dipole        =-1.65370316D-01 9.27467920D-01-3.36690694D-01
 Polarizability= 1.27718917D+02 1.43421513D+00 9.47252570D+01
                -4.82235633D+00 7.88219559D-01 8.60930585D+01
 AAT           =-2.22429178D-02-5.19737487D-02-1.76246070D-01
                -1.93457184D-02 5.69654939D-04-3.67785544D-01
                 1.07631969D-01 3.57731577D-01 7.62973923D-03
                 8.68303889D-03-1.38381937D-02 1.64700371D-01
                 2.24194666D-02-1.85550901D-02 1.87859834D-01
                -1.04944063D-01-2.46769579D-02 8.71005118D-03
                 4.64462364D-02 1.80999757D-01-1.33221979D-01
                -1.35662295D-01-1.12312868D-01 1.89953021D-01
                 2.47924743D-02-2.30622574D-01 9.13471902D-02
                -6.16481976D-02-1.72136799D-01-1.72070370D-01
                 1.54506791D-01 1.22852946D-01 1.96241282D-01
                 5.79524775D-02-1.63605417D-01-6.94799644D-02
                 6.48964415D-03 9.72337596D-02 3.81610789D-01
                 1.52385810D-02-3.77833832D-02 2.21214201D-01
                -5.66744359D-01-4.44822575D-01-1.49986163D-02
                 8.26943088D-02-2.81237713D-01 7.10492097D-01
                 1.71571877D-01-3.34762075D-02 3.16196484D-01
                -2.24312448D-01 1.11872726D-01-3.90513088D-02
                -4.99994710D-03 1.61286409D-01-1.07901708D+00
                -2.01222172D-01 8.02356340D-02-1.54437796D-01
                 1.06692829D+00-2.47519834D-01-4.74261291D-02
                -6.40473287D-02 1.74997492D-01-3.12464281D-01
                -5.60578199D-02 1.21889811D-01-4.59491041D-01
                 5.90346613D-02 4.29150163D-01-1.04909714D-02
                -1.01180456D-02-1.33965319D-01-5.07258333D-02
                 1.25152718D-01-6.24147653D-02 3.21673468D-01
                -1.89841339D-02-2.12206309D-01 1.00728352D-01
                 2.58227597D-02 1.50761684D-01 1.22412403D-01
                -1.61010933D-01-1.69893010D-01-3.68099197D-01
                -7.85794231D-02 8.50778112D-02-1.62213420D-02
                -2.89817567D-02-2.50344222D-02 1.33383457D-01
                -1.47793482D-01 1.03105192D-01 6.78489791D-01
                -1.09994376D-01-1.17850205D+00-1.40091872D-01
                 6.92157049D-03 1.93830207D-01-8.61906149D-02
                -1.04370293D-01 4.56668105D-02 7.49539290D-03
                 5.80951089D-02-1.01724428D-01 7.10009553D-02
                 8.69819503D-02-1.34609596D-01-2.00640706D-01
                 7.54282545D-01-1.46997653D-01-1.09319918D+00
                 1.16790859D-01 1.30941194D+00 8.95648342D-02
                -5.76618833D-02-1.07288302D-01 8.45732337D-02
                -3.57867914D-01 7.13090423D-02 4.11882661D-01
                 2.06970270D-02-1.85255005D-01 5.13748194D-03
                 2.41517274D-02 2.65601980D-02 1.65784670D-01
                -2.38331355D-02-2.30898939D-03-2.27972738D-01
                 4.72275950D-02 2.73202673D-01-1.93632504D-02
                -6.92734196D-02 2.10242266D-02-3.04414571D-02
                -1.88557032D-01-1.00815095D-01 6.98993316D-02
                -2.36318764D-02-1.93570705D-01 2.12864898D-01
                 4.21406658D-02-5.89207055D-02-9.60641886D-02
                 2.11977401D-01 1.19037501D-01 8.48187445D-02
                -3.04519458D-02-1.35849887D-01-2.09099504D-01
                -2.50944548D-02 1.56748837D-01 1.88383509D-03
                 2.39786092D-02 1.47652016D-02-2.75218492D-01
                -2.19108845D-02 2.13977175D-01 9.97182214D-03
                -4.09854953D-02-9.63211087D-02-3.46903803D-02
                 5.99481886D-02 2.01731425D-01 4.77519719D-02
                 1.97830716D-01-1.79638921D-01-1.11883119D-01
                -2.92978949D-02-6.73571289D-02 2.32861587D-01
                -2.72935363D-02-8.28607296D-02 1.55236895D-01
                -1.93864721D-01 6.93979091D-03 1.34936747D-01
                 1.19923489D-02-8.03302736D-02-2.28578537D-02
                -6.04580606D-02-4.72670409D-03-2.66051681D-01
                -3.76629704D-02 2.36170877D-01-9.31963447D-03
                 4.33648250D-02 4.90924343D-03 2.04798249D-01
                 9.54562444D-02 3.98844922D-02 1.72766543D-01
                -2.20001480D-01 4.17988085D-02-1.05988970D-01
                 6.98121478D-02 4.38326613D-02-1.71215979D-02
                -8.29308295D-02-1.67271298D-01 1.67836398D-02
                 1.81993472D-01-2.36041739D-01 4.42578472D-02
                 3.84896532D-02 1.65146028D-01-7.56295302D-02
                -1.53595567D-01-1.16589641D-02-3.10367571D-02
                -1.51634861D-01 5.54705598D-02-1.20444631D-01
                -5.25041237D-02-1.14380006D-01-4.31307836D-02
                 1.30266935D-01-1.73174831D-02-1.11581939D-01
                -1.98789215D-02 6.45144032D-02 1.55596125D-01
                 2.82258709D-02-1.64851613D-01 1.87619213D-02
                 1.61583005D-01-3.04594240D-02 8.89351917D-02
                -1.02053426D-01 1.88574050D-01 1.43778472D-02
                -3.12463399D-02 1.34556040D-01-1.61019768D-01
                -1.63947029D-01 1.13297993D-01 7.27877868D-02
[...]
 .00095869,-0.00062674,-0.00037207,-0.00007831,-0.00003583,0.00006380,-
 0.00000083,-0.00004803,0.00002753,0.00014264,0.00000602,-0.00005032,-0
 .00002017,-0.00002508,0.00004238,0.00004196,0.00002854,0.00001541,0.00
 000100,-0.00002126,0.00008222,-0.00001736,-0.00003325,0.00001875,0.000
 00423,-0.00002641,0.00003220,-0.00010897,0.00000269,0.00002638,0.00006
 198,-0.04883017,0.10158953,-0.00004124,0.00001663,-0.00028232,-0.00000
 473,-0.00002013,-0.00001152,-0.00003926,-0.00005451,0.00004920,-0.0000
 2761,0.00004626,-0.00002763,-0.00039770,0.00038756,0.00011545,0.000310
 66,0.00015285,0.00121285,-0.00061397,-0.00022804,-0.00076145,-0.006694
 42,0.00760897,0.01367794,0.08479820,-0.09205378,-0.22470675,0.00620702
 ,-0.00856697,-0.01826940,-0.00013424,-0.00059559,-0.00107116,-0.000407
 07,0.00087811,-0.00084538,-0.00032335,0.00047269,0.00047983,0.00039925
 ,-0.00038728,0.00054858,-0.00001671,0.00001411,-0.00000253,-0.00000056
 ,0.00001158,0.00005447,0.00000581,-0.00002324,-0.00001759,0.00000818,-
 0.00002703,0.00000220,0.00001380,0.00001857,0.00000011,-0.00001512,0.0
 0001679,-0.00000003,0.00000932,-0.00000234,-0.00001188,-0.00000101,-0.
 00000630,0.00000351,0.00000602,0.00000107,0.00001283,-0.09017302,0.094
 91368,0.24180143,0.00013968,-0.00022597,0.00020252,-0.00001007,0.00005
 609,-0.00006852,-0.00006746,0.00006109,-0.00006744,-0.00004493,-0.0000
 0218,0.00001621,0.00229452,0.00066646,0.00010005,-0.00234781,-0.005272
 30,0.00279055,-0.00064643,0.00161726,-0.00029712,-0.02809755,-0.009787
 69,-0.01230677,-0.14595820,-0.11226784,-0.05973353,-0.00199795,-0.0038
 9887,-0.00119787,-0.00113460,0.00056198,0.00035046,-0.00085180,-0.0003
 7270,-0.00363155,0.00056845,-0.00022116,-0.00004740,-0.00041065,0.0002
 3577,-0.00015425,0.00002420,0.00000762,-0.00000019,-0.00000050,0.00000
 332,0.00001547,0.00003846,0.00000634,0.00000557,0.00003583,0.00002778,
 0.00002586,0.00005017,0.00004159,0.00002445,-0.00000421,-0.00014328,-0
 .00000063,0.00003261,0.00001557,-0.00001280,0.00002795,-0.00004102,0.0
 0008570,-0.00000032,-0.00000136,0.00000754,0.01011097,0.00870713,0.005
 68325,0.16948933,-0.00000516,-0.00029954,-0.00004477,0.00001479,0.0000
 0267,0.00001540,0.00005281,-0.00005570,0.00006117,0.00004594,0.0000750
 5,-0.00005702,-0.00015893,-0.00054826,0.00054133,0.00053149,0.00283671
 ,-0.00042085,0.00068323,-0.00113261,-0.00039704,0.01574593,0.01172420,
 0.00970767,-0.11687928,-0.17763980,-0.07560516,-0.01308967,-0.01323951
 ,-0.00788927,0.00061833,-0.00234559,0.00287839,0.00110138,-0.00072805,
 0.00126722,0.00004644,0.00055528,-0.00030301,0.00039370,-0.00010104,0.
 00017252,0.00000862,-0.00000779,-0.00000315,-0.00000940,-0.00001323,-0
 .00002520,-0.00001618,0.00002520,0.00001475,-0.00002300,-0.00001397,-0
 .00001334,-0.00001536,-0.00000680,-0.00000893,-0.00000105,0.00004152,-
 0.00000978,-0.00002111,0.00000342,-0.00003086,0.00001125,0.00000785,-0
 .00001435,-0.00000675,-0.00000419,0.00001378,-0.00949524,-0.01020728,-
 0.00584169,0.12082756,0.19004438,0.00021444,0.00024919,-0.00001775,-0.
 00003864,-0.00004336,-0.00009534,-0.00001387,0.00001383,0.00000868,-0.
 00000974,-0.00016802,0.00005962,0.00203533,-0.00000094,0.00002936,-0.0
 0243391,-0.00348029,0.00248885,-0.00033669,0.00107676,-0.00041211,-0.0
 0875208,0.00201915,-0.00235095,-0.06009050,-0.07370726,-0.08768527,0.0
 1749578,0.01673617,0.00759156,0.00095807,0.00270268,-0.00369503,0.0003
 4112,0.00034764,-0.00167373,-0.00007834,0.00025178,0.00068329,0.000262
 87,-0.00002444,0.00019221,0.00004084,-0.00003025,0.00005749,-0.0000104
 9,-0.00000840,-0.00007193,0.00007588,0.00013267,0.00005177,0.00002946,
 -0.00001634,0.00000388,-0.00000162,0.00004215,0.00003175,0.00001477,-0
 .00008581,0.00000733,0.00003983,0.00002030,0.00005806,0.00002462,-0.00
 003089,0.00006402,-0.00002353,0.00000014,0.00000812,-0.01716526,-0.022
 13943,-0.01174939,0.06663205,0.07597734,0.09473708,0.00003950,0.000067
 87,-0.00008234,0.00000179,-0.00000017,0.00001744,0.00000223,-0.0000202
 0,0.00002438,-0.00000194,-0.00001426,0.00001430,-0.00003705,-0.0001635
 8,0.00004319,-0.00007303,0.00031872,-0.00010848,0.00013279,-0.00011058
 ,0.00004758,-0.00040488,0.00026050,0.00049513,-0.00165875,0.00291391,0
 .01347338,-0.05244203,-0.00195104,-0.01642132,0.00112986,-0.01339108,-
 0.03160211,0.00068891,0.00042659,0.00039157,-0.00649617,-0.00300385,-0
 .00374929,-0.00055088,0.00007740,0.00034338,-0.00000288,-0.00000794,0.
 00000247,0.00000561,0.00000250,-0.00001167,0.00000353,0.00000339,-0.00
 000242,-0.00000065,-0.00001172,0.,0.00000051,0.00000326,-0.00000215,-0
 .00000134,0.00001387,-0.00000477,0.00000196,-0.00000401,0.00000869,-0.
 00000126,0.00000114,-0.00001366,-0.00000445,0.00000140,-0.00000614,0.0
 0013262,-0.00224158,0.00176335,0.00044830,0.00046497,-0.00003586,0.056
 22977,0.00002096,0.00000818,-0.00001141,0.00000263,0.00000643,0.000008
 17,0.00000451,-0.00000560,0.00001711,-0.00000064,-0.00000488,0.0000019
 8,0.00015257,-0.00010383,-0.00007332,-0.00008704,-0.00022348,0.0000583
 7,0.00011999,-0.00001763,0.00002923,-0.00091930,-0.00008651,-0.0002896
 8,0.00015566,0.00742524,0.02579116,-0.00320648,-0.08929921,-0.09476160
 ,0.00158061,-0.00534211,-0.00747610,0.00028517,0.00024284,0.00021052,-
 0.00367233,-0.00020311,-0.00146080,0.00006795,-0.00011420,0.00029194,0
 .00000155,-0.00000579,-0.00000098,0.00000547,-0.00000173,-0.00001489,-
 0.00000200,0.00000438,0.00000208,0.00000234,-0.00000384,-0.00000856,-0
 .00000865,-0.00000534,-0.00000002,0.00000614,-0.00000550,0.00000425,0.
 00000242,-0.00000068,0.00000191,0.00000141,-0.00000298,0.00000112,-0.0
 0000403,-0.00000243,-0.00000710,-0.00052250,-0.00231272,0.00306965,0.0
 0016315,0.00166269,-0.00027429,0.00957682,0.09837020,-0.00005982,-0.00
 013425,0.00008138,-0.00000151,0.00000318,-0.00002207,-0.00000788,0.000
 02942,-0.00003216,0.00000525,0.00002548,-0.00002316,-0.00005515,0.0002
 9072,-0.00003829,-0.00004213,-0.00025389,-0.00002540,-0.00022608,0.000
 25104,-0.00009798,0.00029067,0.00072837,0.00034682,0.00035361,-0.00835
 338,-0.02143992,-0.01609551,-0.09438436,-0.27152362,0.00172378,-0.0023
 9586,-0.00604319,0.00049846,-0.00012337,-0.00057254,-0.00152985,-0.000
 01855,0.00066249,0.00027239,0.00007796,0.00051523,0.00000298,0.0000140
 6,-0.00000618,-0.00001443,0.00000049,0.00002398,-0.00000044,-0.0000095
 9,0.00000353,-0.00000014,0.00001622,0.00000611,0.00001526,0.00000261,0
 .00000528,-0.00000611,-0.00002165,-0.00000556,-0.00000096,0.00001152,-
 0.00001460,0.00000619,-0.00000984,0.00001640,-0.00000201,0.00000279,0.
 00002127,0.00004540,0.00295759,-0.00133387,0.00019756,0.00002238,0.001
 58085,0.01557272,0.10107755,0.29707855,0.00000168,-0.00005779,0.000070
 10,-0.00000271,0.00001271,-0.00001027,-0.00000555,0.00001825,-0.000013
 89,-0.00000853,0.00001171,-0.00000676,0.00024038,0.00012438,-0.0001443
 7,0.00020695,-0.00003641,0.00013344,0.00029118,0.00005337,-0.00004519,
 -0.00105619,-0.00195627,0.00124380,0.00603725,-0.01070813,-0.00016377,
 -0.12729134,0.12494087,0.00950934,-0.02049712,0.02974175,0.00214217,-0
 .00586069,-0.00197990,-0.00218202,0.00577695,-0.00046200,0.00240682,-0
 .00048267,0.00004368,-0.00045636,0.00000526,0.00000361,-0.00000316,0.0
 0000165,-0.00000175,0.00000252,-0.00000010,-0.00000262,-0.00000004,0.0
 0000489,0.00000841,-0.00000218,-0.00000029,-0.00000235,0.00000098,0.00
 000532,-0.00001517,0.00000360,0.00000385,0.00000250,-0.00000699,0.0000
 0464,-0.00000644,0.00001529,0.00000296,-0.00000292,-0.00000085,0.00092
 381,0.00054020,-0.00044448,-0.00042598,-0.00042654,0.00004886,0.001983
 17,-0.00389118,0.00008504,0.13995633,0.00008665,0.00021009,-0.00018521
 ,0.00000288,-0.00002994,0.00001770,-0.00000222,-0.00004745,0.00003478,
 0.,-0.00004901,0.00003788,-0.00029145,-0.00027257,0.00032907,0.0006627
 0,0.00090494,-0.00071576,0.00033846,-0.00052536,0.00033755,-0.00118747
 ,-0.00220179,0.00213342,0.01220322,-0.01521659,-0.00334262,0.12591570,
 -0.24015359,-0.01355505,-0.00588976,0.00613754,-0.00033139,-0.00216315
 ,-0.00014113,-0.00047723,-0.00008152,0.00086371,0.00102137,0.00030597,
 -0.00013877,0.00007472,-0.00001419,-0.00000647,0.00000982,0.00000699,0
 .00000945,0.00000318,0.00001076,0.00000199,-0.00000988,-0.00000481,-0.
 00002497,0.00000783,0.00000083,0.00001300,-0.00000350,-0.00000854,0.00
 005602,-0.00000310,0.00000058,-0.00000793,0.00002421,-0.00001163,0.000
 01291,-0.00005083,-0.00000424,0.00000834,-0.00000332,-0.00003463,0.001
 62980,0.00015532,-0.00035460,-0.00080086,0.00070845,0.00667156,-0.0100
 6136,-0.00026040,-0.13683102,0.25917973,-0.00004566,-0.00012283,0.0001
 0783,-0.00000569,0.00002596,-0.00000588,-0.00000435,0.00002848,-0.0000
 2198,-0.00000848,0.00003658,-0.00002109,0.00019412,0.00010658,-0.00019
 680,-0.00113392,-0.00041095,0.00043081,-0.00029178,0.00063385,-0.00046
 928,-0.00034534,0.00403347,-0.00305864,-0.01301050,0.01726267,0.000779
 14,0.01250150,-0.01501509,-0.04983751,-0.00414009,0.00399262,-0.000766
 67,-0.00059301,0.00075948,-0.00111942,0.00109715,0.00044887,0.00023861
 ,-0.00055481,0.00044955,-0.00036287,0.00000963,0.00000130,-0.00000604,
 0.00000023,-0.00000423,-0.00000292,-0.00000433,-0.00000453,0.00000217,
 0.00000389,0.00001402,-0.00000115,0.00000607,-0.00000492,-0.00000028,0
 .00000151,-0.00003781,-0.00000374,0.00000131,0.00000068,-0.00001545,0.
 00000658,-0.00000578,0.00003837,0.00000780,-0.00000522,-0.00000346,-0.
 00036028,-0.00049524,0.00064180,0.00040247,0.00060012,-0.00034044,0.01
 885769,-0.02654040,-0.00059752,-0.01227888,0.01400217,0.05436893,0.000
 11132,0.00002396,-0.00006106,-0.00000643,0.00001822,-0.00001810,0.0000
 0088,-0.00002294,0.00001008,0.00000353,-0.00001548,0.00001663,0.000126
 25,0.00006117,-0.00007932,0.00064170,0.00025733,-0.00007779,0.00021119
 ,-0.00012989,0.00008223,-0.00111778,0.00320660,-0.00164936,-0.00540206
 ,-0.00016589,-0.00231288,-0.01501416,-0.01593310,0.02267974,-0.1199978
 4,-0.05951670,0.10487451,0.00743809,0.00643876,-0.01090118,0.00322536,
 0.00166364,-0.00327151,0.00131187,0.00003923,-0.00207922,0.00001276,-0
 .00000835,0.00000687,0.00000313,0.,-0.00001483,0.00000940,0.00001573,0
 .00000347,-0.00000042,-0.00000906,0.00000327,0.00000014,0.00000991,0.0
 0000276,-0.00000122,0.00000490,0.00000098,-0.00000016,-0.00000301,0.00
 000743,-0.00000097,0.00000058,-0.00000681,-0.00000333,0.00000082,-0.00
 000582,-0.00001382,-0.00024185,0.00026139,-0.00008310,-0.00081005,0.00
 097312,0.00124629,-0.00002241,-0.00044799,0.00025577,0.00071433,0.0001
 5446,0.12643554,-0.00000240,0.00034415,-0.00022001,0.00001076,-0.00007
 354,0.00005564,-0.00000032,-0.00004844,0.00005180,-0.00000039,-0.00008
 234,0.00005145,-0.00048935,-0.00080510,0.00082961,-0.00132441,0.000615
 94,-0.00098599,0.00035462,-0.00024692,0.00024557,0.00121305,-0.0054124
 9,0.00304725,0.00042021,-0.00051198,0.00045781,0.00011005,-0.00079918,
 0.00191822,-0.06029858,-0.10442586,0.09811019,-0.01611870,-0.00915204,
 0.01886669,0.01010301,0.00705239,-0.02445973,0.00100877,-0.00194539,-0
 .00517420,-0.00003244,-0.00001163,0.00001465,0.00000512,0.00000862,-0.
 00000648,0.00000856,0.00000925,-0.00000757,-0.00000292,-0.00003344,0.0
 0000311,-0.00000420,0.00001215,-0.00000310,-0.00000191,0.00005322,-0.0
 0000719,0.00000498,-0.00000416,0.00003937,-0.00001043,0.00001423,-0.00
 005369,-0.00001173,0.00000858,-0.00000213,-0.00027252,-0.00004334,0.00
 014543,-0.00010761,0.00000350,-0.00003830,-0.00053658,-0.00013099,-0.0
 0011933,-0.00032836,0.00019002,-0.00024690,0.06597481,0.11494401,-0.00
 000905,-0.00015486,0.00006027,0.00000129,0.00001443,-0.00001526,-0.000
 00218,0.00001384,-0.00000233,0.00000303,0.00001494,-0.00002186,0.00016
 344,0.00012323,-0.00011054,0.00007710,-0.00032276,0.00038142,-0.000037
 65,0.00011689,-0.00006204,-0.00120370,0.00105308,0.00059480,-0.0023471
 0,-0.00082342,0.00041746,-0.00514959,-0.00367840,0.00683551,0.10031691
 ,0.09179528,-0.19662025,0.00464076,0.00225781,-0.00462881,0.01051096,0
 .00540241,-0.02983897,0.00094185,-0.00412553,-0.00267729,0.00000708,0.
 00000458,-0.00000304,-0.00000742,-0.00000182,0.00000268,0.00000061,0.0
 0000063,0.00000546,0.00000393,0.00000657,-0.00000382,0.00000250,-0.000
 00071,0.00000437,0.00000101,-0.00002584,0.00000170,0.00000344,0.000010
 90,-0.00000886,0.00000988,-0.00001613,0.00002082,-0.00000816,-0.000000
 69,0.00001356,-0.00011194,-0.00013427,0.00018947,-0.00004094,-0.000214
 29,0.00028429,0.00083504,0.00018968,0.00086567,0.00025800,0.00015587,-
 0.00003228,-0.10848392,-0.09191451,0.22372861,0.00001437,0.00013761,0.
 00002216,-0.00000126,-0.00002175,0.00001578,-0.00000864,0.00000863,0.0
 0001636,-0.00000321,-0.00004834,0.00002751,-0.00000387,-0.00043583,0.0
 0041956,-0.00345541,0.00292181,-0.00276633,0.00297415,0.00039249,0.000
 28217,-0.02550660,-0.00164136,-0.00767742,-0.00111230,-0.00276175,-0.0
 0080421,-0.00077787,0.00029235,0.00030225,-0.00646789,-0.00001669,-0.0
 0514637,-0.21263798,-0.01134044,-0.12895679,0.00175416,-0.00168883,0.0
 0100011,-0.00126906,0.00056537,0.00032113,-0.00000688,-0.00000986,0.00
 000949,0.00000017,0.00000165,-0.00000986,0.00001525,0.00001751,0.00000
 188,0.00000358,-0.00001598,-0.00000083,0.00000177,0.00001531,0.0000042
 4,0.00001335,-0.00000186,-0.00001209,0.00001929,0.00001273,0.00002468,
 0.00001246,-0.00002049,0.00000572,-0.00002066,0.00000377,0.00000765,-0
 .00015941,0.00000893,0.00004105,-0.00112270,0.00049632,-0.00021657,-0.
 00006490,-0.00008156,-0.00016174,-0.00010050,0.00005592,-0.00019825,0.
 00000268,0.00062347,-0.00000771,0.24031253,-0.00003304,-0.00003479,0.0
 0022146,-0.00000465,0.00000669,-0.00001028,-0.00003490,0.00007034,-0.0
 0003204,-0.00003926,-0.00001289,0.00002080,0.00057265,-0.00006645,0.00
 043003,-0.00486979,0.00324622,-0.00233615,0.00366423,-0.00039050,0.000
 43150,-0.01490495,-0.00289673,-0.00437448,-0.00013530,-0.00254303,0.00
 059875,0.00270311,-0.00508130,0.00034973,0.02701274,0.00173236,0.01939
 075,-0.00869359,-0.04651316,-0.01092194,-0.00337616,0.00431347,-0.0001
 1948,0.00115099,-0.00033347,-0.00059550,0.00000433,0.00000326,-0.00000
 448,0.00000405,-0.00000619,-0.00000069,0.00000165,0.00000108,0.0000006
 0,0.00002518,0.00001555,-0.00000678,0.00001514,0.00000326,0.00000378,0
 .00002540,-0.00008246,-0.00000990,0.00001211,0.00000553,0.00000793,-0.
 00000191,-0.00000985,0.00005075,0.00001225,-0.00000523,-0.00000616,0.0
 0007794,-0.00005945,-0.00003080,-0.00037600,0.00025963,-0.00025078,-0.
 00014770,-0.00008071,0.00017428,0.00135273,0.00051072,0.00028039,-0.00
 046487,0.00006397,-0.00015848,0.01170056,0.04806767,-0.00003960,-0.000
 10433,-0.00007732,-0.00000187,0.00000143,-0.00000447,0.00000395,-0.000
 03751,0.00000221,0.00001205,0.00004127,-0.00004777,0.00024941,-0.00014
 548,-0.00052154,0.00135327,-0.00088398,0.00229871,-0.00076072,0.000155
 89,-0.00142374,0.01960073,0.00277315,0.01134678,0.00212178,0.00168847,
 -0.00102358,0.00005756,0.00181630,-0.00017071,-0.00661787,-0.00246472,
 -0.00645508,-0.13671393,-0.01089162,-0.15730191,0.00207073,-0.00162376
 ,0.00089118,0.00015707,0.00015131,0.00037167,0.00000088,0.00000398,-0.
 00000035,-0.00000020,0.00000217,0.00000371,-0.00000359,-0.00000512,0.0
 0000023,-0.00001125,-0.00000121,0.00000424,0.,-0.00000277,-0.00000417,
 -0.00002278,0.00004601,0.00000133,-0.00000858,-0.00000732,-0.00002071,
 0.00001207,0.00002011,0.00000330,0.00001363,-0.00000225,-0.00000447,0.
 00020004,-0.00007131,0.00009844,0.00071981,-0.00031143,0.00018358,0.00
 039736,0.00002784,0.00015542,-0.00036703,-0.00008955,0.00018495,-0.000
 06097,0.00020194,-0.00012513,0.13922736,0.01010075,0.16840857,0.000133
 54,0.00041811,-0.00070083,0.00001749,-0.00007839,0.00006975,0.00000590
 ,-0.00016313,0.00015397,0.00000664,-0.00009057,0.00005640,-0.00135583,
 -0.00129583,0.00061849,-0.00135489,0.00562832,-0.00247054,0.00181570,-
 0.00126817,0.00102418,-0.01522188,0.00452159,0.02901825,0.00087843,-0.
 00013214,0.00211323,0.00026848,-0.00022838,0.00029469,-0.00252602,0.00
 503416,0.00749707,-0.06079490,0.03215377,0.03755362,0.00062811,0.00039
 832,0.00001283,-0.00042659,0.00001888,-0.00004378,-0.00003899,-0.00001
 890,0.00002584,0.00001502,0.00001506,-0.00001898,0.00001158,0.00001046
 ,-0.00001112,-0.00001037,-0.00008517,-0.00001430,-0.00003188,0.0000105
 5,-0.00000887,-0.00000663,0.00012766,0.00000602,-0.00000470,-0.0000167
 6,0.00005412,-0.00001865,0.00003660,-0.00012798,-0.00001911,0.00001427
 ,-0.00001694,-0.00098179,0.00032591,-0.00017283,-0.00005621,-0.0000850
 4,0.00002003,-0.00030666,0.00026872,-0.00041755,0.00002962,-0.00009730
 ,-0.00026905,0.00060539,-0.00029458,-0.00036747,0.00759539,-0.01525293
 ,-0.02158929,0.07114382,-0.00002316,0.00009344,-0.00042225,0.00000781,
 -0.00004937,0.00003536,-0.00001619,-0.00008850,0.00008083,-0.00000403,
 -0.00001062,-0.00001261,-0.00073460,-0.00101323,0.00013448,-0.00198185
 ,0.00361848,-0.00072567,0.00136341,-0.00006110,-0.00060574,-0.00864552
 ,0.00893540,0.01945019,0.00080184,-0.00070919,0.00079576,-0.00035749,0
 .00103407,0.00042657,0.00283024,-0.01352414,-0.02843268,0.03346819,-0.
 12527249,-0.11190318,0.00336673,-0.00772500,-0.00003716,-0.00032133,0.
 00016980,0.00093693,-0.00002004,-0.00000425,0.00001391,0.00000573,0.00
 000761,-0.00000718,0.00000971,0.00000514,-0.00000068,0.00000694,-0.000
 04281,-0.00001344,-0.00001015,0.00000706,0.00000004,-0.00000561,0.0000
 0794,0.00001133,0.00000748,-0.00000418,0.00000917,0.00001557,-0.000000
 39,0.00000191,-0.00000518,0.00000305,-0.00000710,-0.00035631,0.0001674
 2,-0.00007156,0.00007389,-0.00009788,0.00002055,0.00080040,0.00029469,
 0.00039881,-0.00014529,-0.00005047,0.00021709,-0.00108640,0.00040680,0
 .00041159,0.00083030,-0.00018355,-0.00038828,-0.02987508,0.13408627,-0
 .00010221,-0.00048758,0.00054667,-0.00001144,0.00008713,-0.00005738,0.
 00001538,0.00014129,-0.00011674,0.00001145,0.00009618,-0.00004800,0.00
 100056,0.00116223,-0.00089378,0.00243586,-0.00561311,0.00219824,-0.002
 27839,0.00096423,0.00026255,0.01314926,0.00310806,-0.01297902,-0.00108
 423,-0.00003252,-0.00186208,0.00029810,-0.00016539,-0.00055999,-0.0029
 5515,0.00462891,0.00777836,0.03681577,-0.11203260,-0.21830200,-0.00019
 622,0.00263980,0.00141904,-0.00037204,0.00029311,0.00007429,0.00003695
 ,0.00002021,-0.00002556,-0.00002700,-0.00000789,0.00002626,-0.00000723
 ,-0.00001573,0.00001250,-0.00000572,0.00007063,0.00002084,0.00003929,-
 0.00000694,0.00001050,-0.00000239,-0.00009474,-0.00003093,0.00000312,0
 .00002544,-0.00005477,0.00001350,-0.00005616,0.00008412,-0.00000424,-0
 .00000412,0.00003795,0.00063477,-0.00042945,0.00020280,0.00029948,-0.0
 0008192,-0.00002987,-0.00024746,0.00013660,0.00041309,0.00020626,-0.00
 002549,0.00007083,0.00039385,-0.00079961,0.00074438,0.00422908,-0.0132
 0358,-0.01677339,-0.05228896,0.11968301,0.23783107\\0.00000095,-0.0000
 0016,0.00000098,0.00000241,-0.00000002,0.00000220,0.00000139,-0.000000
 31,0.00000006,0.00000347,0.00000064,0.00000041,0.00000206,0.00000034,0
 .00000046,-0.00000274,0.00000022,-0.00000060,0.00000149,-0.00000018,-0
 .00000157,-0.00000105,0.00000035,-0.00000111,-0.00000126,-0.00000087,0
 .00000137,-0.00000327,0.00000011,-0.00000078,-0.00000224,0.00000054,-0
 .00000137,-0.00000216,-0.00000033,-0.00000178,-0.00000165,-0.00000024,
 -0.00000204,-0.00000051,0.00000022,-0.00000123,0.00000302,-0.00000013,
 0.00000280,0.00000249,-0.00000019,0.00000277,0.00000106,-0.00000037,0.
 00000309,0.00000208,0.00000019,0.00000074,0.00000026,-0.00000021,0.000
 00113,0.00000090,0.00000030,-0.00000059,0.00000402,0.00000033,0.000000
 04,0.00000279,0.00000037,-0.00000135,0.00000347,0.00000020,0.00000028,
 -0.00000072,-0.00000017,0.00000101,-0.00000190,-0.00000035,0.00000135,
 -0.00000389,-0.00000040,0.00000036,-0.00000286,-0.00000031,0.00000080,
 -0.00000355,-0.00000007,-0.00000229,-0.00000124,0.00000034,-0.00000293
 ,-0.00000280,0.00000015,-0.00000221\\\@
 The archive entry for this job was punched.


 THE NUMBERS ARE MEANINGLESS, BUT THE TRENDS ARE IMPORTANT.
     -- LARRY BURGGRAF
 Job cpu time:  0 days  0 hours 16 minutes 27.9 seconds.
 File lengths (MBytes):  RWF=    113 Int=      0 D2E=      0 Chk=      3 Scr=      1
 Normal termination of Gaussian DV at Wed Oct 19 22:59:01 2011.
