 Entering Gaussian System, Link 0=gdv
 Input=tdb.gjf
 Output=tdb.log
 Initial command:
 /home/foresman/gdv/l1.exe /tmp/Gau-25036.inp -scrdir=/tmp/
 Default is to use a total of   8 processors:
                                8 via shared-memory
                                1 via Linda
 Entering Link 1 = /home/foresman/gdv/l1.exe PID=     25037.
  
 Copyright (c) 1988,1990,1992,1993,1995,1998,2003,2009,2011,
            Gaussian, Inc.  All Rights Reserved.
  
 This is the private, development version of
 the Gaussian(R) DV system of programs. It is based on
 the Gaussian(R) 09 system (copyright 2009, Gaussian, Inc.),
 the Gaussian(R) 03 system (copyright 2003, Gaussian, Inc.),
 the Gaussian(R) 98 system (copyright 1998, Gaussian, Inc.),
 the Gaussian(R) 94 system (copyright 1995, Gaussian, Inc.),
 the Gaussian 92(TM) system (copyright 1992, Gaussian, Inc.),
 the Gaussian 90(TM) system (copyright 1990, Gaussian, Inc.),
 the Gaussian 88(TM) system (copyright 1988, Gaussian, Inc.),
 the Gaussian 86(TM) system (copyright 1986, Carnegie Mellon
 University), and the Gaussian 82(TM) system (copyright 1983,
 Carnegie Mellon University). Gaussian is a federally registered
 trademark of Gaussian, Inc.
  
 This software contains proprietary and confidential information,
 including trade secrets, belonging to Gaussian, Inc.
  
 This software is provided under written license and may be
 used, copied, transmitted, or stored only in accord with that
 written license.
  
 The following legend is applicable only to US Government
 contracts under FAR:
  
                    RESTRICTED RIGHTS LEGEND
  
 Use, reproduction and disclosure by the US Government is
 subject to restrictions as set forth in subparagraphs (a)
 and (c) of the Commercial Computer Software - Restricted
 Rights clause in FAR 52.227-19.
  
 Gaussian, Inc.
 340 Quinnipiac St., Bldg. 40, Wallingford CT 06492
  
  
 ---------------------------------------------------------------
 Warning -- This program may not be used in any manner that
 competes with the business of Gaussian, Inc. or will provide
 assistance to any competitor of Gaussian, Inc.  The licensee
 of this program is prohibited from giving any competitor of
 Gaussian, Inc. access to this program.  By using this program,
 the user acknowledges that Gaussian, Inc. is engaged in the
 business of creating and licensing software in the field of
 computational chemistry and represents and warrants to the
 licensee that it is not a competitor of Gaussian, Inc. and that
 it will not use this program in any manner prohibited above.
 ---------------------------------------------------------------
  

 Cite this work as:
 Gaussian Development Version, Revision H.13,
 M. J. Frisch, G. W. Trucks, H. B. Schlegel, G. E. Scuseria, 
 M. A. Robb, J. R. Cheeseman, G. Scalmani, V. Barone, B. Mennucci, 
 G. A. Petersson, H. Nakatsuji, M. Caricato, X. Li, H. P. Hratchian, 
 A. F. Izmaylov, J. Bloino, G. Zheng, J. L. Sonnenberg, W. Liang, 
 M. Hada, M. Ehara, K. Toyota, R. Fukuda, J. Hasegawa, M. Ishida, 
 T. Nakajima, Y. Honda, O. Kitao, H. Nakai, T. Vreven, 
 J. A. Montgomery, Jr., J. E. Peralta, F. Ogliaro, M. Bearpark, 
 J. J. Heyd, E. Brothers, K. N. Kudin, V. N. Staroverov, T. Keith, 
 R. Kobayashi, J. Normand, K. Raghavachari, A. Rendell, J. C. Burant, 
 S. S. Iyengar, J. Tomasi, M. Cossi, N. Rega, J. M. Millam, M. Klene, 
 J. E. Knox, J. B. Cross, V. Bakken, C. Adamo, J. Jaramillo, 
 R. Gomperts, R. E. Stratmann, O. Yazyev, A. J. Austin, R. Cammi, 
 C. Pomelli, J. W. Ochterski, R. L. Martin, K. Morokuma, 
 V. G. Zakrzewski, G. A. Voth, P. Salvador, J. J. Dannenberg, 
 S. Dapprich, P. V. Parandekar, N. J. Mayhall, A. D. Daniels, 
 O. Farkas, J. B. Foresman, J. V. Ortiz, J. Cioslowski, 
 and D. J. Fox, Gaussian, Inc., Wallingford CT, 2010.
 
 ******************************************
 Gaussian DV:  EM64L-GDVRevH.13 30-Sep-2011
                19-Oct-2011 
 ******************************************
 %chk=tdb
 %nprocshared=8
 Will use up to    8 processors via shared memory.
 Default route:  maxdisk=400GB
 ------------------------------------
 #p B3LYP/3-21G freq=vcd Geom=Connect
 ------------------------------------
 1/10=4,30=1,38=1,57=2/1,3;
 2/12=2,17=6,18=5,40=1/2;
 3/5=5,11=2,16=1,25=1,30=1,36=2,71=2,74=-5,140=1/1,2,3;
 4//1;
 5/5=2,38=5,98=1/2;
 8/6=4,10=90,11=11/1;
 10/15=4,46=1/2;
 11/6=1,8=1,9=11,15=111,16=1/1,2,10;
 10/6=1,46=1/2;
 6/7=2,8=2,9=2,10=2,18=1,28=1/1;
 7/8=1,10=1,25=1/1,2,3,16;
 1/10=4,30=1/3;
 99//99;
 Leave Link    1 at Wed Oct 19 22:59:01 2011, MaxMem=          0 cpu:       0.3
 (Enter /home/foresman/gdv/l101.exe)
 ---------------
 7 -22.184 0.000
 ---------------
 Charge =  0 Multiplicity = 1
 Symbolic Z-Matrix:
 C                    -0.32189  -1.72856   1.315 
 C                    -1.79306  -1.81321   1.73881 
 C                     0.10791  -2.96466   0.5092 
 C                     0.60066  -1.47918   2.51862 
 O                    -0.31902  -0.52192   0.42206 
 C                     0.8729   -0.12474  -0.16495 
 O                     1.97725  -0.67467  -0.01923 
 N                     0.65706   0.97277  -0.93439 
 C                    -0.61897   1.7261   -1.01625 
 C                    -0.29825   2.77686  -2.10453 
 C                     1.1894    3.07983  -1.8454 
 C                     1.78525   1.68242  -1.56941 
 O                     1.17142   3.89794  -0.63361 
 H                     2.1075    3.98337  -0.30631 
 H                    -1.94052  -2.66772   2.40679 
 H                    -2.08247  -0.89461   2.25771 
 H                    -2.42703  -1.93194   0.85514 
 H                     0.04329  -3.85637   1.14153 
 H                    -0.55517  -3.09277  -0.35289 
 H                     1.13284  -2.82884   0.1616 
 H                     0.54929  -2.33174   3.20386 
 H                     1.62396  -1.3467    2.16524 
 H                     0.27927  -0.57723   3.05009 
 H                    -0.8294    2.22052  -0.06436 
 H                    -1.44117   1.0603   -1.27979 
 H                    -0.4227    2.34771  -3.10332 
 H                    -0.89806   3.68239  -2.00346 
 H                     1.68415   3.58128  -2.68678 
 H                     2.64815   1.70821  -0.89665 
 H                     2.08472   1.19478  -2.50471 
 
 NAtoms=     30 NQM=        0 NQMF=       0 NMMI=     30 NMMIF=      0
                NMic=       0 NMicF=      0.
                    Isotopes and Nuclear Properties:
 (Nuclear quadrupole moments (NQMom) in fm**2, nuclear magnetic moments (NMagM)
  in nuclear magnetons)

  Atom         1           2           3           4           5           6           7           8           9          10
 IAtWgt=          12          12          12          12          16          12          16          14          12          12
 AtmWgt=  12.0000000  12.0000000  12.0000000  12.0000000  15.9949146  12.0000000  15.9949146  14.0030740  12.0000000  12.0000000
 NucSpn=           0           0           0           0           0           0           0           2           0           0
 AtZEff=   0.0000000   0.0000000   0.0000000   0.0000000   0.0000000   0.0000000   0.0000000   0.0000000   0.0000000   0.0000000
 NQMom=    0.0000000   0.0000000   0.0000000   0.0000000   0.0000000   0.0000000   0.0000000   2.0440000   0.0000000   0.0000000
 NMagM=    0.0000000   0.0000000   0.0000000   0.0000000   0.0000000   0.0000000   0.0000000   0.4037610   0.0000000   0.0000000
 AtZNuc=   6.0000000   6.0000000   6.0000000   6.0000000   8.0000000   6.0000000   8.0000000   7.0000000   6.0000000   6.0000000

  Atom        11          12          13          14          15          16          17          18          19          20
 IAtWgt=          12          12          16           1           1           1           1           1           1           1
 AtmWgt=  12.0000000  12.0000000  15.9949146   1.0078250   1.0078250   1.0078250   1.0078250   1.0078250   1.0078250   1.0078250
 NucSpn=           0           0           0           1           1           1           1           1           1           1
 AtZEff=   0.0000000   0.0000000   0.0000000   0.0000000   0.0000000   0.0000000   0.0000000   0.0000000   0.0000000   0.0000000
 NQMom=    0.0000000   0.0000000   0.0000000   0.0000000   0.0000000   0.0000000   0.0000000   0.0000000   0.0000000   0.0000000
 NMagM=    0.0000000   0.0000000   0.0000000   2.7928460   2.7928460   2.7928460   2.7928460   2.7928460   2.7928460   2.7928460
 AtZNuc=   6.0000000   6.0000000   8.0000000   1.0000000   1.0000000   1.0000000   1.0000000   1.0000000   1.0000000   1.0000000

  Atom        21          22          23          24          25          26          27          28          29          30
 IAtWgt=           1           1           1           1           1           1           1           1           1           1
 AtmWgt=   1.0078250   1.0078250   1.0078250   1.0078250   1.0078250   1.0078250   1.0078250   1.0078250   1.0078250   1.0078250
 NucSpn=           1           1           1           1           1           1           1           1           1           1
 AtZEff=   0.0000000   0.0000000   0.0000000   0.0000000   0.0000000   0.0000000   0.0000000   0.0000000   0.0000000   0.0000000
 NQMom=    0.0000000   0.0000000   0.0000000   0.0000000   0.0000000   0.0000000   0.0000000   0.0000000   0.0000000   0.0000000
 NMagM=    2.7928460   2.7928460   2.7928460   2.7928460   2.7928460   2.7928460   2.7928460   2.7928460   2.7928460   2.7928460
 AtZNuc=   1.0000000   1.0000000   1.0000000   1.0000000   1.0000000   1.0000000   1.0000000   1.0000000   1.0000000   1.0000000
 Leave Link  101 at Wed Oct 19 22:59:01 2011, MaxMem=  128000000 cpu:       0.9
 (Enter /home/foresman/gdv/l103.exe)

 GradGradGradGradGradGradGradGradGradGradGradGradGradGradGradGradGradGrad
 Berny optimization.
 Initialization pass.
 Trust Radius=3.00D-01 FncErr=1.00D-07 GrdErr=1.00D-07
 Number of steps in this run=      2 maximum allowed number of steps=      2.
 GradGradGradGradGradGradGradGradGradGradGradGradGradGradGradGradGradGrad

 Leave Link  103 at Wed Oct 19 22:59:02 2011, MaxMem=  128000000 cpu:       0.2
 (Enter /home/foresman/gdv/l202.exe)
                          Input orientation:                          
 ---------------------------------------------------------------------
 Center     Atomic      Atomic             Coordinates (Angstroms)
 Number     Number       Type             X           Y           Z
 ---------------------------------------------------------------------
      1          6           0       -0.321887   -1.728562    1.315000
      2          6           0       -1.793055   -1.813208    1.738814
      3          6           0        0.107912   -2.964663    0.509204
      4          6           0        0.600660   -1.479175    2.518621
      5          8           0       -0.319019   -0.521921    0.422057
      6          6           0        0.872900   -0.124736   -0.164953
      7          8           0        1.977254   -0.674667   -0.019230
      8          7           0        0.657062    0.972766   -0.934386
      9          6           0       -0.618970    1.726097   -1.016247
     10          6           0       -0.298251    2.776859   -2.104533
     11          6           0        1.189402    3.079832   -1.845397
     12          6           0        1.785252    1.682418   -1.569406
     13          8           0        1.171419    3.897942   -0.633607
     14          1           0        2.107501    3.983374   -0.306310
     15          1           0       -1.940522   -2.667720    2.406787
     16          1           0       -2.082471   -0.894611    2.257706
     17          1           0       -2.427033   -1.931943    0.855138
     18          1           0        0.043288   -3.856372    1.141527
     19          1           0       -0.555171   -3.092773   -0.352892
     20          1           0        1.132839   -2.828837    0.161599
     21          1           0        0.549287   -2.331745    3.203861
     22          1           0        1.623962   -1.346700    2.165236
     23          1           0        0.279266   -0.577225    3.050086
     24          1           0       -0.829405    2.220519   -0.064356
     25          1           0       -1.441169    1.060298   -1.279789
     26          1           0       -0.422700    2.347707   -3.103318
     27          1           0       -0.898061    3.682385   -2.003465
     28          1           0        1.684150    3.581277   -2.686779
     29          1           0        2.648145    1.708208   -0.896653
     30          1           0        2.084717    1.194777   -2.504715
 ---------------------------------------------------------------------
                    Distance matrix (angstroms):
                    1          2          3          4          5
     1  C    0.000000
     2  C    1.533335   0.000000
     3  C    1.536874   2.539973   0.000000
     4  C    1.536877   2.539596   2.547005   0.000000
     5  O    1.501112   2.360943   2.481300   2.481477   0.000000
     6  C    2.487978   3.685456   3.017430   3.018309   1.386726
     7  O    2.859531   4.313030   3.002960   2.997154   2.343275
     8  N    3.649007   4.572825   4.229523   4.235381   2.242044
     9  C    4.178234   4.636326   4.985839   4.925095   2.685568
    10  C    5.656198   6.170452   6.321524   6.347867   4.155242
    11  C    5.949182   6.758955   6.576450   6.338440   4.515452
    12  C    4.939091   5.997333   5.359986   5.301971   3.640466
    13  O    6.138776   6.858114   7.037926   6.259049   4.782366
    14  H    6.415356   7.279921   7.275895   6.331686   5.168772
    15  H    2.166563   1.094589   2.808038   2.807625   3.342586
    16  H    2.164214   1.093998   3.484272   2.758439   2.572600
    17  H    2.164365   1.094034   2.759009   3.484121   2.572828
    18  H    2.165877   2.811303   1.095059   2.803233   3.430374
    19  H    2.167338   2.746793   1.095125   3.490734   2.695476
    20  H    2.158048   3.475624   1.090758   2.767734   2.738173
    21  H    2.165772   2.811015   2.802958   1.095020   3.430430
    22  H    2.157556   3.474978   2.767428   1.090677   2.737537
    23  H    2.167368   2.746198   3.490745   1.095109   2.695838
    24  H    4.213720   4.522279   5.300344   4.733349   2.831620
    25  H    3.970322   4.182443   4.669096   5.004589   2.580488
    26  H    6.012293   6.529727   6.446173   6.877390   4.546843
    27  H    6.373581   6.708742   7.176959   7.024039   4.888214
    28  H    6.944985   7.795980   7.453064   7.340185   5.523928
    29  H    5.052118   6.250626   5.501358   5.100559   3.939104
    30  H    5.378464   6.487883   5.503853   5.881016   4.158244
                    6          7          8          9         10
     6  C    0.000000
     7  O    1.242279   0.000000
     8  N    1.357617   2.300967   0.000000
     9  C    2.525066   3.673974   1.484071   0.000000
    10  C    3.681415   4.630274   2.353002   1.546392   0.000000
    11  C    3.632261   4.248748   2.356492   2.406304   1.540148
    12  C    2.463875   2.827677   1.476370   2.467423   2.413534
    13  O    4.060872   4.683543   2.985245   2.840566   2.362283
    14  H    4.291945   4.668696   3.400297   3.610118   3.236808
    15  H    4.582135   5.020637   5.582475   5.724447   7.258960
    16  H    3.898231   4.659848   4.602347   4.441702   5.974300
    17  H    3.898223   4.662940   4.599062   4.489146   5.955181
    18  H    4.039834   3.900107   5.292136   6.021506   7.392788
    19  H    3.299083   3.517349   4.282084   4.864732   6.130810
    20  H    2.736123   2.320816   3.984938   5.020317   6.213470
    21  H    4.040362   3.895294   5.296838   5.969943   7.415875
    22  H    2.736252   2.312648   3.990298   4.959301   6.239357
    23  H    3.300549   3.509040   4.291995   4.758906   6.176852
    24  H    2.899687   4.032552   2.126835   1.093084   2.180358
    25  H    2.828794   4.035434   2.128271   1.090300   2.221046
    26  H    4.052844   4.940255   2.785788   2.186501   1.094180
    27  H    4.583732   5.584669   3.302026   2.208971   1.090855
    28  H    4.555465   5.031380   3.306073   3.396576   2.217208
    29  H    2.654536   2.626415   2.122902   3.269352   3.358904
    30  H    2.946879   3.111913   2.133874   3.131735   2.888194
                   11         12         13         14         15
    11  C    0.000000
    12  C    1.544013   0.000000
    13  O    1.462212   2.482148   0.000000
    14  H    2.007009   2.644552   0.995324   0.000000
    15  H    7.804605   6.972461   7.876299   8.245268   0.000000
    16  H    6.583070   6.020561   6.474261   6.922773   1.785018
    17  H    6.744582   6.056844   7.010904   7.543337   1.784846
    18  H    7.638470   6.407948   8.034498   8.235219   2.636148
    19  H    6.585754   5.455266   7.206247   7.560678   3.117001
    20  H    6.240482   4.875802   6.773729   6.897473   3.809511
    21  H    7.428992   6.358081   7.343174   7.391215   2.635784
    22  H    5.989008   4.811354   5.961928   5.895087   3.809067
    23  H    6.178040   5.358516   5.864525   5.950370   3.116322
    24  H    2.825970   3.064500   2.672282   3.433892   5.588919
    25  H    3.364273   3.298591   3.910932   4.699478   5.266717
    26  H    2.171921   2.769575   3.323239   4.111031   7.603917
    27  H    2.178430   3.374677   2.491129   3.464727   7.801339
    28  H    1.097336   2.205541   2.139786   2.451028   8.839266
    29  H    2.215717   1.094462   2.654213   2.411884   7.149639
    30  H    2.188544   1.096483   3.412076   3.551025   7.432650
                   16         17         18         19         20
    16  H    0.000000
    17  H    1.778195   0.000000
    18  H    3.812707   3.144508   0.000000
    19  H    3.738955   2.512117   1.781719   0.000000
    20  H    4.298036   3.736055   1.789751   1.784304   0.000000
    21  H    3.144314   3.812456   2.614143   3.801247   3.137354
    22  H    3.735048   4.297607   3.137669   3.760101   2.540176
    23  H    2.511255   3.738598   3.801459   4.313295   3.760545
    24  H    4.082424   4.543218   6.256545   5.328183   5.421943
    25  H    4.092287   3.805699   5.678030   4.346507   4.881443
    26  H    6.481362   6.164587   7.531697   6.097640   6.314745
    27  H    6.364692   6.483058   8.222528   6.981742   7.155982
    28  H    7.659565   7.735800   8.524493   7.416504   7.036105
    29  H    6.253270   6.486672   6.473331   5.797096   4.899064
    30  H    6.664207   6.435905   6.555655   5.475621   4.919835
                   21         22         23         24         25
    21  H    0.000000
    22  H    1.789967   0.000000
    23  H    1.781824   1.784169   0.000000
    24  H    5.771061   4.869820   4.330851   0.000000
    25  H    5.964141   5.201622   4.938542   1.788197   0.000000
    26  H    7.913440   6.752417   6.849260   3.068693   2.453561
    27  H    8.085841   7.002169   6.713327   2.429385   2.773809
    28  H    8.423264   6.915970   7.223466   3.879010   4.254712
    29  H    6.127042   4.444838   5.139217   3.612276   4.158013
    30  H    6.883439   5.336651   6.103725   3.936954   3.735023
                   26         27         28         29         30
    26  H    0.000000
    27  H    1.793602   0.000000
    28  H    2.476694   2.673004   0.000000
    29  H    3.835155   4.206898   2.764458   0.000000
    30  H    2.823954   3.916173   2.426724   1.779585   0.000000
 Stoichiometry    C9H17NO3
 Framework group  C1[X(C9H17NO3)]
 Deg. of freedom    84
 Full point group                 C1      NOp   1
 Largest Abelian subgroup         C1      NOp   1
 Largest concise Abelian subgroup C1      NOp   1
                         Standard orientation:                         
 ---------------------------------------------------------------------
 Center     Atomic      Atomic             Coordinates (Angstroms)
 Number     Number       Type             X           Y           Z
 ---------------------------------------------------------------------
      1          6           0       -2.595327    0.215931    0.116747
      2          6           0       -3.163128    1.633725    0.253054
      3          6           0       -3.146433   -0.498203   -1.127551
      4          6           0       -2.815633   -0.607612    1.395509
      5          8           0       -1.128550    0.478818   -0.064334
      6          6           0       -0.268991   -0.597513   -0.224584
      7          8           0       -0.593200   -1.796739   -0.226125
      8          7           0        1.001574   -0.145265   -0.380333
      9          6           0        1.431758    1.268750   -0.246284
     10          6           0        2.926999    1.183755   -0.631458
     11          6           0        3.337043   -0.190338   -0.069510
     12          6           0        2.136105   -1.088257   -0.437565
     13          8           0        3.410570    0.032402    1.373766
     14          1           0        3.497145   -0.854195    1.817749
     15          1           0       -4.247779    1.589556    0.393429
     16          1           0       -2.707478    2.134147    1.112585
     17          1           0       -2.938887    2.211015   -0.648812
     18          1           0       -4.228482   -0.632041   -1.025519
     19          1           0       -2.946567    0.105544   -2.019090
     20          1           0       -2.659759   -1.468962   -1.230159
     21          1           0       -3.888902   -0.744594    1.564030
     22          1           0       -2.329174   -1.577641    1.286068
     23          1           0       -2.386485   -0.079738    2.253672
     24          1           0        1.327046    1.600575    0.789940
     25          1           0        0.846423    1.911701   -0.904123
     26          1           0        3.045970    1.192162   -1.719119
     27          1           0        3.522881    1.977404   -0.178677
     28          1           0        4.278779   -0.567816   -0.487587
     29          1           0        1.984072   -1.912610    0.266120
     30          1           0        2.255261   -1.504916   -1.444776
 ---------------------------------------------------------------------
 Rotational constants (GHZ):      1.7071438      0.4124818      0.3877820
 Leave Link  202 at Wed Oct 19 22:59:02 2011, MaxMem=  128000000 cpu:       0.0
 (Enter /home/foresman/gdv/l301.exe)
 Standard basis: 3-21G (6D, 7F)
 Ernie: Thresh=  0.10000D-02 Tol=  0.10000D-05 Strict=F.
 There are   151 symmetry adapted cartesian basis functions of A   symmetry.
 There are   151 symmetry adapted basis functions of A   symmetry.
   151 basis functions,   246 primitive gaussians,   151 cartesian basis functions
    51 alpha electrons       51 beta electrons
       nuclear repulsion energy       880.9974535122 Hartrees.
 IExCor=  402 DFT=T Ex+Corr=B3LYP ExCW=0 ScaHFX=  0.200000
 ScaDFX=  0.800000  0.720000  1.000000  0.810000 ScalE2=  1.000000  1.000000
 IRadAn=      0 IRanWt=     -1 IRanGd=            0 ICorTp=0 IEmpDi=  4
 NAtoms=   30 NActive=   30 NUniq=   30 SFac= 1.00D+00 NAtFMM=   60 NAOKFM=F Big=F
 Integral buffers will be    131072 words long.
 Raffenetti 2 integral format.
 Two-electron integral symmetry is turned on.
 Leave Link  301 at Wed Oct 19 22:59:02 2011, MaxMem=  128000000 cpu:       0.6
 (Enter /home/foresman/gdv/l302.exe)
 NPDir=0 NMtPBC=     1 NCelOv=     1 NCel=       1 NClECP=     1 NCelD=      1
         NCelK=      1 NCelE2=     1 NClLst=     1 CellRange=     0.0.
 One-electron integrals computed using PRISM.
 NBasis=   151 RedAO= T EigKep=  9.36D-03  NBF=   151
 NBsUse=   151 1.00D-06 EigRej= -1.00D+00 NBFU=   151
 Precomputing XC quadrature grid using
 IXCGrd= 2 IRadAn=           0 IRanWt=          -1 IRanGd=           0 AccXCQ= 0.00D+00.
 NRdTot=    1896 NPtTot=      240388 NUsed=      254063 NTot=      254095
 NSgBfM=   148   148   148   148   148 NAtAll=    30    30.
 Leave Link  302 at Wed Oct 19 22:59:02 2011, MaxMem=  128000000 cpu:       2.3
 (Enter /home/foresman/gdv/l303.exe)
 DipDrv:  MaxL=2.
 Leave Link  303 at Wed Oct 19 22:59:02 2011, MaxMem=  128000000 cpu:       0.4
 (Enter /home/foresman/gdv/l401.exe)
 ExpMin= 1.83D-01 ExpMax= 3.22D+02 ExpMxC= 3.22D+02 IAcc=1 IRadAn=         1 AccDes= 0.00D+00
 Harris functional with IExCor=  402 and IRadAn=       1 diagonalized for initial guess.
 HarFok:  IExCor=  402 AccDes= 0.00D+00 IRadAn=         1 IDoV= 1 UseB2=F ITyADJ=14
 ICtDFT=  3500011 ScaDFX=  1.000000  1.000000  1.000000  1.000000
 FoFCou: FMM=F IPFlag=           0 FMFlag=      100000 FMFlg1=           0
         NFxFlg=           0 DoJE=T BraDBF=F KetDBF=T FulRan=T
         wScrn=  0.000000 ICntrl=     500 IOpCl=  0 I1Cent=   200000004 NGrid=           0
         NMat0=    1 NMatS0=      1 NMatT0=    0 NMatD0=    1 NMtDS0=    0 NMtDT0=    0
 Petite list used in FoFCou.
 Harris En= -630.190074856517    
 Initial guess orbital symmetries:
       Occupied  (A) (A) (A) (A) (A) (A) (A) (A) (A) (A) (A) (A)
                 (A) (A) (A) (A) (A) (A) (A) (A) (A) (A) (A) (A)
                 (A) (A) (A) (A) (A) (A) (A) (A) (A) (A) (A) (A)
                 (A) (A) (A) (A) (A) (A) (A) (A) (A) (A) (A) (A)
                 (A) (A) (A)
       Virtual   (A) (A) (A) (A) (A) (A) (A) (A) (A) (A) (A) (A)
                 (A) (A) (A) (A) (A) (A) (A) (A) (A) (A) (A) (A)
                 (A) (A) (A) (A) (A) (A) (A) (A) (A) (A) (A) (A)
                 (A) (A) (A) (A) (A) (A) (A) (A) (A) (A) (A) (A)
                 (A) (A) (A) (A) (A) (A) (A) (A) (A) (A) (A) (A)
                 (A) (A) (A) (A) (A) (A) (A) (A) (A) (A) (A) (A)
                 (A) (A) (A) (A) (A) (A) (A) (A) (A) (A) (A) (A)
                 (A) (A) (A) (A) (A) (A) (A) (A) (A) (A) (A) (A)
                 (A) (A) (A) (A)
 The electronic state of the initial guess is 1-A.
 Leave Link  401 at Wed Oct 19 22:59:02 2011, MaxMem=  128000000 cpu:       2.8
 (Enter /home/foresman/gdv/l502.exe)
 Closed shell SCF:
 Using DIIS extrapolation, IDIIS=  1040.
 Integral symmetry usage will be decided dynamically.
       253780 words used for storage of precomputed grid.
 Keep R1 ints in memory in canonical form, NReq=67953581.
 IVT=      342727 IEndB=      342727 NGot=   128000000 MDV=    61802248
 LenX=    61802248 LenY=    61779006
 Requested convergence on RMS density matrix=1.00D-08 within 128 cycles.
 Requested convergence on MAX density matrix=1.00D-06.
 Requested convergence on             energy=1.00D-06.
 No special actions if energy rises.
 FoFCou: FMM=F IPFlag=           0 FMFlag=           0 FMFlg1=           0
         NFxFlg=           0 DoJE=F BraDBF=F KetDBF=F FulRan=T
         wScrn=  0.000000 ICntrl=     600 IOpCl=  0 I1Cent=           0 NGrid=           0
         NMat0=    1 NMatS0=  11476 NMatT0=    0 NMatD0=    1 NMtDS0=    0 NMtDT0=    0
 Symmetry not used in FoFCou.
 Integral accuracy reduced to 1.0D-05 until final iterations.

 Cycle   1  Pass 0  IDiag  1:
 E= -629.848366652312    
 DIIS: error= 4.71D-02 at cycle   1 NSaved=   1.
 NSaved= 1 IEnMin= 1 EnMin= -629.848366652312     IErMin= 1 ErrMin= 4.71D-02
 ErrMax= 4.71D-02  0.00D+00 EMaxC= 1.00D-01 BMatC= 3.66D-01 BMatP= 3.66D-01
 IDIUse=3 WtCom= 5.29D-01 WtEn= 4.71D-01
 Coeff-Com:  0.100D+01
 Coeff-En:   0.100D+01
 Coeff:      0.100D+01
 Gap=     0.268 Goal=   None    Shift=    0.000
 GapD=    0.268 DampG=1.000 DampE=0.500 DampFc=0.5000 IDamp=-1.
 Damping current iteration by 5.00D-01
 RMSDP=8.97D-03 MaxDP=1.53D-01              OVMax= 2.34D-01

 Cycle   2  Pass 0  IDiag  1:
 E= -629.953276862273     Delta-E=       -0.104910209961 Rises=F Damp=T
 DIIS: error= 2.95D-02 at cycle   2 NSaved=   2.
 NSaved= 2 IEnMin= 2 EnMin= -629.953276862273     IErMin= 2 ErrMin= 2.95D-02
 ErrMax= 2.95D-02  0.00D+00 EMaxC= 1.00D-01 BMatC= 4.77D-02 BMatP= 3.66D-01
 IDIUse=3 WtCom= 7.05D-01 WtEn= 2.95D-01
 Coeff-Com:  0.195D+00 0.805D+00
 Coeff-En:   0.300D+00 0.700D+00
 Coeff:      0.226D+00 0.774D+00
 Gap=     0.298 Goal=   None    Shift=    0.000
 RMSDP=2.67D-03 MaxDP=5.65D-02 DE=-1.05D-01 OVMax= 1.47D-01

 Cycle   3  Pass 0  IDiag  1:
 E= -630.130973784313     Delta-E=       -0.177696922040 Rises=F Damp=F
 DIIS: error= 3.66D-02 at cycle   3 NSaved=   3.
 NSaved= 3 IEnMin= 3 EnMin= -630.130973784313     IErMin= 2 ErrMin= 2.95D-02
 ErrMax= 3.66D-02  0.00D+00 EMaxC= 1.00D-01 BMatC= 5.69D-02 BMatP= 4.77D-02
 IDIUse=2 WtCom= 0.00D+00 WtEn= 1.00D+00
 Coeff-En:   0.000D+00 0.000D+00 0.100D+01
 Coeff:      0.000D+00 0.000D+00 0.100D+01
 Gap=     0.327 Goal=   None    Shift=    0.000
 RMSDP=5.04D-03 MaxDP=1.24D-01 DE=-1.78D-01 OVMax= 2.97D-01

 Cycle   4  Pass 0  IDiag  1:
 E= -629.907168551367     Delta-E=        0.223805232946 Rises=F Damp=F
 DIIS: error= 1.01D-01 at cycle   4 NSaved=   4.
 NSaved= 4 IEnMin= 3 EnMin= -630.130973784313     IErMin= 2 ErrMin= 2.95D-02
 ErrMax= 1.01D-01  0.00D+00 EMaxC= 1.00D-01 BMatC= 3.45D-01 BMatP= 4.77D-02
 IDIUse=2 WtCom= 0.00D+00 WtEn= 1.00D+00
 Coeff-En:   0.000D+00 0.000D+00 0.798D+00 0.202D+00
 Coeff:      0.000D+00 0.000D+00 0.798D+00 0.202D+00
 Gap=     0.280 Goal=   None    Shift=    0.000
 RMSDP=2.72D-03 MaxDP=6.93D-02 DE= 2.24D-01 OVMax= 1.41D-01

 Cycle   5  Pass 0  IDiag  1:
 E= -630.159893312511     Delta-E=       -0.252724761144 Rises=F Damp=F
 DIIS: error= 2.47D-02 at cycle   5 NSaved=   5.
 NSaved= 5 IEnMin= 5 EnMin= -630.159893312511     IErMin= 5 ErrMin= 2.47D-02
 ErrMax= 2.47D-02  0.00D+00 EMaxC= 1.00D-01 BMatC= 2.32D-02 BMatP= 4.77D-02
 IDIUse=3 WtCom= 7.53D-01 WtEn= 2.47D-01
 Coeff-Com: -0.843D-02 0.449D-01 0.325D+00-0.642D-01 0.703D+00
 Coeff-En:   0.000D+00 0.000D+00 0.328D+00 0.000D+00 0.672D+00
 Coeff:     -0.634D-02 0.338D-01 0.326D+00-0.483D-01 0.695D+00
 Gap=     0.304 Goal=   None    Shift=    0.000
 RMSDP=1.01D-03 MaxDP=2.51D-02 DE=-2.53D-01 OVMax= 4.13D-02

 Cycle   6  Pass 0  IDiag  1:
 E= -630.178657290193     Delta-E=       -0.018763977682 Rises=F Damp=F
 DIIS: error= 2.16D-03 at cycle   6 NSaved=   6.
 NSaved= 6 IEnMin= 6 EnMin= -630.178657290193     IErMin= 6 ErrMin= 2.16D-03
 ErrMax= 2.16D-03  0.00D+00 EMaxC= 1.00D-01 BMatC= 2.20D-04 BMatP= 2.32D-02
 IDIUse=3 WtCom= 9.78D-01 WtEn= 2.16D-02
 Coeff-Com: -0.804D-02 0.201D-01 0.132D+00-0.435D-01 0.389D+00 0.510D+00
 Coeff-En:   0.000D+00 0.000D+00 0.000D+00 0.000D+00 0.000D+00 0.100D+01
 Coeff:     -0.787D-02 0.197D-01 0.130D+00-0.426D-01 0.380D+00 0.521D+00
 Gap=     0.286 Goal=   None    Shift=    0.000
 RMSDP=1.05D-04 MaxDP=3.18D-03 DE=-1.88D-02 OVMax= 5.60D-03

 Cycle   7  Pass 0  IDiag  1:
 E= -630.178830287983     Delta-E=       -0.000172997791 Rises=F Damp=F
 DIIS: error= 4.00D-04 at cycle   7 NSaved=   7.
 NSaved= 7 IEnMin= 7 EnMin= -630.178830287983     IErMin= 7 ErrMin= 4.00D-04
 ErrMax= 4.00D-04  0.00D+00 EMaxC= 1.00D-01 BMatC= 8.50D-06 BMatP= 2.20D-04
 IDIUse=3 WtCom= 9.96D-01 WtEn= 4.00D-03
 Coeff-Com: -0.310D-02 0.763D-02 0.388D-01-0.184D-01 0.136D+00 0.265D+00
 Coeff-Com:  0.574D+00
 Coeff-En:   0.000D+00 0.000D+00 0.000D+00 0.000D+00 0.000D+00 0.000D+00
 Coeff-En:   0.100D+01
 Coeff:     -0.309D-02 0.760D-02 0.386D-01-0.184D-01 0.135D+00 0.264D+00
 Coeff:      0.576D+00
 Gap=     0.286 Goal=   None    Shift=    0.000
 RMSDP=1.77D-05 MaxDP=4.89D-04 DE=-1.73D-04 OVMax= 7.10D-04

 Cycle   8  Pass 0  IDiag  1:
 E= -630.178836932710     Delta-E=       -0.000006644727 Rises=F Damp=F
 DIIS: error= 6.11D-05 at cycle   8 NSaved=   8.
 NSaved= 8 IEnMin= 8 EnMin= -630.178836932710     IErMin= 8 ErrMin= 6.11D-05
 ErrMax= 6.11D-05  0.00D+00 EMaxC= 1.00D-01 BMatC= 4.22D-07 BMatP= 8.50D-06
 IDIUse=1 WtCom= 1.00D+00 WtEn= 0.00D+00
 Coeff-Com: -0.150D-03-0.178D-03 0.215D-02-0.138D-02 0.105D-01 0.712D-01
 Coeff-Com:  0.244D+00 0.674D+00
 Coeff:     -0.150D-03-0.178D-03 0.215D-02-0.138D-02 0.105D-01 0.712D-01
 Coeff:      0.244D+00 0.674D+00
 Gap=     0.285 Goal=   None    Shift=    0.000
 RMSDP=5.24D-06 MaxDP=8.92D-05 DE=-6.64D-06 OVMax= 1.60D-04

 Initial convergence to 1.0D-05 achieved.  Increase integral accuracy.
 Cycle   9  Pass 1  IDiag  1:
 E= -630.178919666686     Delta-E=       -0.000082733976 Rises=F Damp=F
 DIIS: error= 1.70D-05 at cycle   1 NSaved=   1.
 NSaved= 1 IEnMin= 1 EnMin= -630.178919666686     IErMin= 1 ErrMin= 1.70D-05
 ErrMax= 1.70D-05  0.00D+00 EMaxC= 1.00D-01 BMatC= 9.16D-08 BMatP= 9.16D-08
 IDIUse=1 WtCom= 1.00D+00 WtEn= 0.00D+00
 Coeff-Com:  0.100D+01
 Coeff:      0.100D+01
 Gap=     0.286 Goal=   None    Shift=    0.000
 RMSDP=5.24D-06 MaxDP=8.92D-05 DE=-8.27D-05 OVMax= 6.48D-05

 Cycle  10  Pass 1  IDiag  1:
 E= -630.178919789877     Delta-E=       -0.000000123191 Rises=F Damp=F
 DIIS: error= 1.06D-05 at cycle   2 NSaved=   2.
 NSaved= 2 IEnMin= 2 EnMin= -630.178919789877     IErMin= 2 ErrMin= 1.06D-05
 ErrMax= 1.06D-05  0.00D+00 EMaxC= 1.00D-01 BMatC= 1.34D-08 BMatP= 9.16D-08
 IDIUse=1 WtCom= 1.00D+00 WtEn= 0.00D+00
 Coeff-Com:  0.163D+00 0.837D+00
 Coeff:      0.163D+00 0.837D+00
 Gap=     0.285 Goal=   None    Shift=    0.000
 RMSDP=1.65D-06 MaxDP=2.75D-05 DE=-1.23D-07 OVMax= 6.47D-05

 Cycle  11  Pass 1  IDiag  1:
 E= -630.178919787547     Delta-E=        0.000000002330 Rises=F Damp=F
 DIIS: error= 1.49D-05 at cycle   3 NSaved=   3.
 NSaved= 3 IEnMin= 2 EnMin= -630.178919789877     IErMin= 2 ErrMin= 1.06D-05
 ErrMax= 1.49D-05  0.00D+00 EMaxC= 1.00D-01 BMatC= 1.80D-08 BMatP= 1.34D-08
 IDIUse=1 WtCom= 1.00D+00 WtEn= 0.00D+00
 Coeff-Com: -0.205D-01 0.543D+00 0.477D+00
 Coeff:     -0.205D-01 0.543D+00 0.477D+00
 Gap=     0.286 Goal=   None    Shift=    0.000
 RMSDP=8.77D-07 MaxDP=2.39D-05 DE= 2.33D-09 OVMax= 4.29D-05

 Cycle  12  Pass 1  IDiag  1:
 E= -630.178919800149     Delta-E=       -0.000000012602 Rises=F Damp=F
 DIIS: error= 3.15D-06 at cycle   4 NSaved=   4.
 NSaved= 4 IEnMin= 4 EnMin= -630.178919800149     IErMin= 4 ErrMin= 3.15D-06
 ErrMax= 3.15D-06  0.00D+00 EMaxC= 1.00D-01 BMatC= 7.87D-10 BMatP= 1.34D-08
 IDIUse=1 WtCom= 1.00D+00 WtEn= 0.00D+00
 Coeff-Com: -0.169D-01 0.295D+00 0.289D+00 0.433D+00
 Coeff:     -0.169D-01 0.295D+00 0.289D+00 0.433D+00
 Gap=     0.286 Goal=   None    Shift=    0.000
 RMSDP=2.16D-07 MaxDP=8.07D-06 DE=-1.26D-08 OVMax= 8.40D-06

 Cycle  13  Pass 1  IDiag  1:
 E= -630.178919800761     Delta-E=       -0.000000000613 Rises=F Damp=F
 DIIS: error= 1.28D-06 at cycle   5 NSaved=   5.
 NSaved= 5 IEnMin= 5 EnMin= -630.178919800761     IErMin= 5 ErrMin= 1.28D-06
 ErrMax= 1.28D-06  0.00D+00 EMaxC= 1.00D-01 BMatC= 6.25D-11 BMatP= 7.87D-10
 IDIUse=1 WtCom= 1.00D+00 WtEn= 0.00D+00
 Coeff-Com: -0.826D-02 0.122D+00 0.126D+00 0.261D+00 0.499D+00
 Coeff:     -0.826D-02 0.122D+00 0.126D+00 0.261D+00 0.499D+00
 Gap=     0.286 Goal=   None    Shift=    0.000
 RMSDP=6.24D-08 MaxDP=1.07D-06 DE=-6.13D-10 OVMax= 2.60D-06

 Cycle  14  Pass 1  IDiag  1:
 E= -630.178919800823     Delta-E=       -0.000000000062 Rises=F Damp=F
 DIIS: error= 3.79D-07 at cycle   6 NSaved=   6.
 NSaved= 6 IEnMin= 6 EnMin= -630.178919800823     IErMin= 6 ErrMin= 3.79D-07
 ErrMax= 3.79D-07  0.00D+00 EMaxC= 1.00D-01 BMatC= 7.28D-12 BMatP= 6.25D-11
 IDIUse=1 WtCom= 1.00D+00 WtEn= 0.00D+00
 Coeff-Com: -0.289D-02 0.363D-01 0.389D-01 0.987D-01 0.301D+00 0.528D+00
 Coeff:     -0.289D-02 0.363D-01 0.389D-01 0.987D-01 0.301D+00 0.528D+00
 Gap=     0.286 Goal=   None    Shift=    0.000
 RMSDP=1.91D-08 MaxDP=2.97D-07 DE=-6.18D-11 OVMax= 8.09D-07

 Cycle  15  Pass 1  IDiag  1:
 E= -630.178919800815     Delta-E=        0.000000000008 Rises=F Damp=F
 DIIS: error= 6.32D-08 at cycle   7 NSaved=   7.
 NSaved= 7 IEnMin= 6 EnMin= -630.178919800823     IErMin= 7 ErrMin= 6.32D-08
 ErrMax= 6.32D-08  0.00D+00 EMaxC= 1.00D-01 BMatC= 3.81D-13 BMatP= 7.28D-12
 IDIUse=1 WtCom= 1.00D+00 WtEn= 0.00D+00
 Coeff-Com: -0.361D-03 0.246D-02 0.344D-02 0.144D-01 0.862D-01 0.239D+00
 Coeff-Com:  0.655D+00
 Coeff:     -0.361D-03 0.246D-02 0.344D-02 0.144D-01 0.862D-01 0.239D+00
 Coeff:      0.655D+00
 Gap=     0.286 Goal=   None    Shift=    0.000
 RMSDP=5.83D-09 MaxDP=1.69D-07 DE= 7.96D-12 OVMax= 1.87D-07

 SCF Done:  E(RB3LYP) =  -630.178919801     A.U. after   15 cycles
            NFock= 15  Conv=0.58D-08     -V/T= 2.0085
 KE= 6.248589678685D+02 PE=-3.231788020021D+03 EE= 1.095752678840D+03
 Leave Link  502 at Wed Oct 19 22:59:15 2011, MaxMem=  128000000 cpu:      98.0
 (Enter /home/foresman/gdv/l801.exe)
 DoSCS=F DFT=T ScalE2(SS,OS)=  1.000000  1.000000
 Range of M.O.s used for correlation:     1   151
 NBasis=   151 NAE=    51 NBE=    51 NFC=     0 NFV=     0
 NROrb=    151 NOA=    51 NOB=    51 NVA=   100 NVB=   100
 Leave Link  801 at Wed Oct 19 22:59:15 2011, MaxMem=  128000000 cpu:       0.3
 (Enter /home/foresman/gdv/l1002.exe)
 Minotr:  Closed shell wavefunction.
          Direct CPHF calculation.
          Differentiating once with respect to magnetic field using GIAOs.
          Electric field/nuclear overlap derivatives assumed to be zero.
          Requested convergence is 1.0D-08 RMS, and 1.0D-07 maximum.
          Secondary convergence is 1.0D-12 RMS, and 1.0D-12 maximum.
          NewPWx=T KeepS1=F KeepF1=F KeepIn=T MapXYZ=F SortEE=F KeepMc=T.
          MDV=     127999605 using IRadAn=       2.
 Generate precomputed XC quadrature information.
 Keep R3 ints in memory in canonical form, NReq=67618787.
 FoFCou: FMM=F IPFlag=           0 FMFlag=           0 FMFlg1=           0
         NFxFlg=           0 DoJE=F BraDBF=F KetDBF=F FulRan=T
         wScrn=  0.000000 ICntrl=     600 IOpCl=  0 I1Cent=           0 NGrid=           0
         NMat0=    1 NMatS0=  11476 NMatT0=    0 NMatD0=    1 NMtDS0=    0 NMtDT0=    0
 Symmetry not used in FoFCou.
          Solving linear equations simultaneously, MaxMat=       0.
 FoFJK:  IHMeth= 1 ICntrl=    6127 DoSepK=F KAlg= 0 I1Cent=   0 FoldK=F
 IRaf=       1 NMat=   1 IRICut=       1 DoRegI=T DoRafI=F ISym2E= 0.
          There are     3 degrees of freedom in the 1st order CPHF.  IDoFFX=0 NUNeed=     3.
      3 vectors produced by pass  0 Test12= 1.70D-13 3.33D-08 XBig12= 2.77D+01 7.58D-01.
 AX will form     3 AO Fock derivatives at one time.
      3 vectors produced by pass  1 Test12= 1.70D-13 3.33D-08 XBig12= 3.38D-02 9.06D-02.
      3 vectors produced by pass  2 Test12= 1.70D-13 3.33D-08 XBig12= 2.25D-04 7.66D-03.
      3 vectors produced by pass  3 Test12= 1.70D-13 3.33D-08 XBig12= 4.63D-07 2.20D-04.
      3 vectors produced by pass  4 Test12= 1.70D-13 3.33D-08 XBig12= 1.01D-09 8.31D-06.
      3 vectors produced by pass  5 Test12= 1.70D-13 3.33D-08 XBig12= 3.00D-12 5.11D-07.
 InvSVY:  IOpt=1 It=  1 EMax= 4.44D-16
 Solved reduced A of dimension    18 with     3 vectors.
 Calculating GIAO nuclear magnetic shielding tensors.
 SCF GIAO Magnetic shielding tensor (ppm):
      1  C    Isotropic =   124.3012   Anisotropy =    68.7546
   XX=   168.7657   YX=     5.4448   ZX=    -8.1017
   XY=     5.1172   YY=    99.9067   ZY=    -0.7636
   XZ=    -7.7990   YZ=    -0.9486   ZZ=   104.2313
   Eigenvalues:    99.4878   103.2783   170.1376
      2  C    Isotropic =   173.8368   Anisotropy =    40.9804
   XX=   165.7439   YX=   -14.4064   ZX=    -1.4536
   XY=   -11.8185   YY=   195.9619   ZY=     3.0786
   XZ=    -1.1172   YZ=     3.4644   ZZ=   159.8046
   Eigenvalues:   159.5033   160.8500   201.1570
      3  C    Isotropic =   178.6673   Anisotropy =    35.5025
   XX=   171.8103   YX=     8.8874   ZX=     9.0355
   XY=     8.8417   YY=   169.3857   ZY=    11.9954
   XZ=     5.0399   YZ=    10.7077   ZZ=   194.8060
   Eigenvalues:   161.0335   172.6328   202.3357
      4  C    Isotropic =   178.6697   Anisotropy =    35.1727
   XX=   170.1203   YX=     6.0638   ZX=    -2.0090
   XY=     5.4731   YY=   171.7637   ZY=   -15.8449
   XZ=     1.9889   YZ=   -14.7660   ZZ=   194.1251
   Eigenvalues:   161.0305   172.8605   202.1182
      5  O    Isotropic =   159.0911   Anisotropy =    79.2064
   XX=   133.9685   YX=   -12.9491   ZX=     9.2312
   XY=  -136.0404   YY=   140.6461   ZY=    15.3782
   XZ=     0.9402   YZ=    -4.5307   ZZ=   202.6586
   Eigenvalues:    62.3450   203.0328   211.8953
      6  C    Isotropic =    61.4065   Anisotropy =    60.1432
   XX=     6.2394   YX=    29.9977   ZX=    12.5096
   XY=    48.4483   YY=    85.3525   ZY=    -6.7877
   XZ=    15.4914   YZ=    -4.7275   ZZ=    92.6277
   Eigenvalues:   -12.0983    94.8159   101.5020
      7  O    Isotropic =    42.5639   Anisotropy =   378.7086
   XX=   -56.5573   YX=   -11.0891   ZX=    49.5493
   XY=    -1.3487   YY=  -103.5115   ZY=   -18.0138
   XZ=    39.6248   YZ=   -31.2452   ZZ=   287.7605
   Eigenvalues:  -105.3232   -62.0215   295.0363
      8  N    Isotropic =   175.8973   Anisotropy =   133.5665
   XX=   256.9410   YX=    20.3868   ZX=    -5.3894
   XY=    43.3890   YY=   132.9230   ZY=    -7.6514
   XZ=    -4.0426   YZ=    -4.2359   ZZ=   137.8277
   Eigenvalues:   123.6408   139.1094   264.9416
      9  C    Isotropic =   157.5572   Anisotropy =    46.6055
   XX=   161.7557   YX=    16.3544   ZX=    -1.3253
   XY=    15.6365   YY=   179.0857   ZY=    -0.2659
   XZ=    -7.4654   YZ=     3.3556   ZZ=   131.8301
   Eigenvalues:   130.8403   153.2037   188.6275
     10  C    Isotropic =   168.6856   Anisotropy =    24.9769
   XX=   171.6350   YX=    -5.7628   ZX=     4.2379
   XY=    -1.4245   YY=   181.9796   ZY=    -7.5460
   XZ=    -5.7283   YZ=   -10.6588   ZZ=   152.4422
   Eigenvalues:   149.7292   170.9907   185.3369
     11  C    Isotropic =   132.0380   Anisotropy =    32.3906
   XX=   123.6330   YX=     2.8338   ZX=     2.9747
   XY=     2.4843   YY=   121.4534   ZY=     2.0315
   XZ=    14.5796   YZ=    -1.4432   ZZ=   151.0278
   Eigenvalues:   118.7668   123.7156   153.6318
     12  C    Isotropic =   149.5722   Anisotropy =    31.3266
   XX=   168.2413   YX=    -0.3317   ZX=     9.7688
   XY=    -3.7808   YY=   147.9386   ZY=    -2.8071
   XZ=     7.9261   YZ=     4.6291   ZZ=   132.5368
   Eigenvalues:   130.3596   147.9004   170.4567
     13  O    Isotropic =   259.5156   Anisotropy =    88.6063
   XX=   222.3987   YX=    23.1441   ZX=    20.6577
   XY=    24.2097   YY=   297.1323   ZY=   -52.6575
   XZ=    22.8583   YZ=   -16.4987   ZZ=   259.0157
   Eigenvalues:   198.2140   261.7464   318.5865
     14  H    Isotropic =    32.4886   Anisotropy =    15.4396
   XX=    26.3421   YX=    -0.8165   ZX=     2.8877
   XY=    -1.9171   YY=    35.5898   ZY=    -6.8292
   XZ=     3.3778   YZ=    -6.3723   ZZ=    35.5338
   Eigenvalues:    25.3106    29.3734    42.7817
     15  H    Isotropic =    31.7823   Anisotropy =     8.8673
   XX=    35.9202   YX=    -3.0496   ZX=    -1.1232
   XY=    -3.3603   YY=    31.1479   ZY=     0.5584
   XZ=    -1.1335   YZ=     0.4872   ZZ=    28.2788
   Eigenvalues:    28.1136    29.5394    37.6938
     16  H    Isotropic =    31.3056   Anisotropy =     7.8918
   XX=    29.1141   YX=    -0.5796   ZX=     0.4276
   XY=     0.4182   YY=    33.7424   ZY=     4.4641
   XZ=     0.8688   YZ=     3.3956   ZZ=    31.0603
   Eigenvalues:    27.9604    29.3896    36.5668
     17  H    Isotropic =    31.3151   Anisotropy =     8.0360
   XX=    28.8669   YX=    -1.3880   ZX=     0.0589
   XY=    -0.6549   YY=    34.4308   ZY=    -4.1867
   XZ=    -0.3354   YZ=    -2.9756   ZZ=    30.6476
   Eigenvalues:    27.9773    29.2955    36.6724
     18  H    Isotropic =    31.9715   Anisotropy =     9.1388
   XX=    36.4084   YX=     2.4090   ZX=     2.1135
   XY=     2.7197   YY=    29.0852   ZY=     1.2483
   XZ=     2.4329   YZ=     1.2261   ZZ=    30.4208
   Eigenvalues:    28.1216    29.7288    38.0640
     19  H    Isotropic =    31.7904   Anisotropy =     7.9080
   XX=    29.6898   YX=     0.1923   ZX=     1.5957
   XY=     0.3086   YY=    29.0431   ZY=    -0.6954
   XZ=     0.6970   YZ=    -2.1887   ZZ=    36.6384
   Eigenvalues:    28.5689    29.7400    37.0624
     20  H    Isotropic =    29.7704   Anisotropy =     6.5121
   XX=    29.8619   YX=    -1.3206   ZX=     2.0373
   XY=    -2.1094   YY=    32.1885   ZY=     2.7686
   XZ=     2.5989   YZ=     4.3476   ZZ=    27.2609
   Eigenvalues:    24.0059    31.1936    34.1118
     21  H    Isotropic =    31.9796   Anisotropy =     9.1148
   XX=    35.0016   YX=     2.2206   ZX=    -3.0707
   XY=     2.5487   YY=    29.3723   ZY=    -2.0765
   XZ=    -3.3859   YZ=    -2.0492   ZZ=    31.5648
   Eigenvalues:    28.0913    29.7913    38.0561
     22  H    Isotropic =    29.7696   Anisotropy =     6.5071
   XX=    28.6435   YX=    -2.1374   ZX=    -2.4895
   XY=    -2.4414   YY=    32.6961   ZY=    -1.7088
   XZ=    -3.1284   YZ=    -3.5596   ZZ=    27.9691
   Eigenvalues:    24.0659    31.1351    34.1076
     23  H    Isotropic =    31.7917   Anisotropy =     7.7041
   XX=    29.7909   YX=     0.7008   ZX=     0.3796
   XY=     0.3797   YY=    28.8067   ZY=    -0.0751
   XZ=     1.2600   YZ=     1.2987   ZZ=    36.7774
   Eigenvalues:    28.5611    29.8861    36.9278
     24  H    Isotropic =    29.0169   Anisotropy =     7.5387
   XX=    28.7823   YX=     0.0636   ZX=    -1.0542
   XY=    -0.1217   YY=    29.0176   ZY=     4.6050
   XZ=    -1.4948   YZ=     4.8734   ZZ=    29.2508
   Eigenvalues:    24.2244    28.7836    34.0427
     25  H    Isotropic =    29.5877   Anisotropy =     7.1914
   XX=    31.3868   YX=    -0.6394   ZX=     0.9226
   XY=    -1.5993   YY=    31.9288   ZY=    -4.0130
   XZ=     1.3339   YZ=    -3.4659   ZZ=    25.4476
   Eigenvalues:    23.6977    30.6835    34.3820
     26  H    Isotropic =    31.0532   Anisotropy =    10.0571
   XX=    29.8696   YX=     0.4073   ZX=    -2.8123
   XY=     0.7061   YY=    28.3129   ZY=    -3.2177
   XZ=    -3.5024   YZ=    -3.8915   ZZ=    34.9771
   Eigenvalues:    26.5378    28.8639    37.7579
     27  H    Isotropic =    30.7918   Anisotropy =    10.4489
   XX=    32.0095   YX=     4.3701   ZX=     0.7004
   XY=     5.0123   YY=    33.8621   ZY=     0.8811
   XZ=     0.7306   YZ=    -0.3177   ZZ=    26.5037
   Eigenvalues:    26.3849    28.2327    37.7577
     28  H    Isotropic =    28.7970   Anisotropy =     8.1771
   XX=    32.4071   YX=    -2.4944   ZX=    -1.4612
   XY=    -2.6436   YY=    25.9948   ZY=     1.3737
   XZ=    -2.7916   YZ=     1.1213   ZZ=    27.9889
   Eigenvalues:    24.9951    27.1474    34.2484
     29  H    Isotropic =    29.7647   Anisotropy =     7.1603
   XX=    30.1280   YX=    -1.6811   ZX=     0.6028
   XY=    -0.5994   YY=    33.0957   ZY=    -3.0354
   XZ=     0.8276   YZ=    -2.7868   ZZ=    26.0704
   Eigenvalues:    25.0044    29.7516    34.5382
     30  H    Isotropic =    29.5271   Anisotropy =     9.4053
   XX=    28.5489   YX=    -2.2969   ZX=    -1.0645
   XY=    -1.6987   YY=    29.3791   ZY=     4.5543
   XZ=    -1.0561   YZ=     5.6820   ZZ=    30.6534
   Eigenvalues:    24.6750    28.1091    35.7973
 End of Minotr F.D. properties file   721 does not exist.
 End of Minotr F.D. properties file   722 does not exist.
 Leave Link 1002 at Wed Oct 19 22:59:25 2011, MaxMem=  128000000 cpu:      81.1
 (Enter /home/foresman/gdv/l1101.exe)
 Using compressed storage, NAtomX=    30.
 Will process     31 centers per pass.
 Leave Link 1101 at Wed Oct 19 22:59:25 2011, MaxMem=  128000000 cpu:       1.8
 (Enter /home/foresman/gdv/l1102.exe)
 Symmetrizing basis deriv contribution to polar:
 IMax=3 JMax=2 DiffMx= 0.00D+00
 Leave Link 1102 at Wed Oct 19 22:59:25 2011, MaxMem=  128000000 cpu:       0.4
 (Enter /home/foresman/gdv/l1110.exe)
 Forming Gx(P) for the SCF density, NAtomX=    30.
 Integral derivatives from FoFJK, PRISM(SPDF).
 Do as many integral derivatives as possible in FoFJK.
 G2DrvN: MDV=     127999656.
 G2DrvN: will do    31 centers at a time, making    1 passes.
 Calling FoFCou, ICntrl=  3107 FMM=F I1Cent=   0 AccDes= 0.00D+00.
 FoFJK:  IHMeth= 1 ICntrl=    3107 DoSepK=F KAlg= 0 I1Cent=   0 FoldK=F
 IRaf=       0 NMat=   1 IRICut=       1 DoRegI=T DoRafI=F ISym2E= 0.
 FoFCou: FMM=F IPFlag=           0 FMFlag=      100000 FMFlg1=           0
         NFxFlg=           0 DoJE=F BraDBF=F KetDBF=F FulRan=T
         wScrn=  0.000000 ICntrl=    3107 IOpCl=  0 I1Cent=           0 NGrid=           0
         NMat0=    1 NMatS0=      1 NMatT0=    0 NMatD0=    1 NMtDS0=    0 NMtDT0=    0
 Symmetry not used in FoFCou.
 End of G2Drv F.D. properties file   721 does not exist.
 End of G2Drv F.D. properties file   722 does not exist.
 Leave Link 1110 at Wed Oct 19 22:59:57 2011, MaxMem=  128000000 cpu:     254.3
 (Enter /home/foresman/gdv/l1002.exe)
 Minotr:  Closed shell wavefunction.
          IDoAtm=111111111111111111111111111111
          Direct CPHF calculation.
          Differentiating once with respect to electric field.
                with respect to dipole field.
          Differentiating once with respect to nuclear coordinates.
          Requested convergence is 1.0D-08 RMS, and 1.0D-07 maximum.
          Secondary convergence is 1.0D-12 RMS, and 1.0D-12 maximum.
          NewPWx=T KeepS1=F KeepF1=F KeepIn=T MapXYZ=F SortEE=F KeepMc=T.
          MDV=     127999545 using IRadAn=       2.
 Generate precomputed XC quadrature information.
 Keep R1 ints in memory in canonical form, NReq=67619516.
 FoFCou: FMM=F IPFlag=           0 FMFlag=           0 FMFlg1=           0
         NFxFlg=           0 DoJE=F BraDBF=F KetDBF=F FulRan=T
         wScrn=  0.000000 ICntrl=     600 IOpCl=  0 I1Cent=           0 NGrid=           0
         NMat0=    1 NMatS0=  11476 NMatT0=    0 NMatD0=    1 NMtDS0=    0 NMtDT0=    0
 Symmetry not used in FoFCou.
          Solving linear equations simultaneously, MaxMat=       0.
          There are    93 degrees of freedom in the 1st order CPHF.  IDoFFX=5 NUNeed=    93.
     90 vectors produced by pass  0 Test12= 5.48D-15 1.08D-09 XBig12= 7.27D+01 3.70D+00.
 AX will form    90 AO Fock derivatives at one time.
     90 vectors produced by pass  1 Test12= 5.48D-15 1.08D-09 XBig12= 1.44D+01 1.09D+00.
     90 vectors produced by pass  2 Test12= 5.48D-15 1.08D-09 XBig12= 5.20D-02 2.69D-02.
     90 vectors produced by pass  3 Test12= 5.48D-15 1.08D-09 XBig12= 8.03D-05 1.14D-03.
     90 vectors produced by pass  4 Test12= 5.48D-15 1.08D-09 XBig12= 5.91D-08 2.33D-05.
     41 vectors produced by pass  5 Test12= 5.48D-15 1.08D-09 XBig12= 3.49D-11 5.12D-07.
      3 vectors produced by pass  6 Test12= 5.48D-15 1.08D-09 XBig12= 1.61D-14 1.14D-08.
 InvSVY:  IOpt=1 It=  1 EMax= 7.11D-15
 Solved reduced A of dimension   494 with    93 vectors.
 FullF1:  Do perturbations    1 to     3.
 Isotropic polarizability for W=    0.000000      103.27 Bohr**3.
 Dipole-magnetic dipole polarizability for W=    0.000000:
                 1             2             3 
      1  -0.455861D+01 -0.706278D+01 -0.133557D+02
      2   0.221964D+02 -0.295402D+01 -0.133450D+02
      3   0.211942D+01  0.292795D+01  0.643785D+01
 DQ contribution to OR G for W=    0.000000:
                 1             2             3 
      1  -0.184157D+01 -0.697282D+01 -0.343033D+02
      2   0.232789D+02 -0.901381D+01 -0.615305D+02
      3   0.167486D+02  0.585877D+02  0.108554D+02
 Optical Rotation G' tensor for W=    0.000000:
                 1             2             3 
      1   0.128152D+01 -0.174515D+01  0.614732D+00
      2  -0.174515D+01 -0.131383D+01  0.223642D+01
      3   0.614732D+00  0.223642D+01 -0.104247D+01
 OR G Eigenvalues:    -3.9752     0.6448     2.2556  Iso=     0.3583
 Eigenvectors:
   (1)   0.312064   0.722788  -0.616599
   (2)   0.477508   0.441753   0.759500
   (3)   0.821342  -0.531443  -0.207282
 w=    0.000000 a.u., Optical Rotation Beta=      0.3583 au.
 Molar Mass =    187.2382 grams/mole, [Alpha]D (static) =       73.96 deg.
 AAT (total):
 -0.0248 -0.0897 -0.1814
 -0.0143  0.0005 -0.3684
  0.1093  0.3663  0.0097
  0.0095 -0.0064  0.1626
  0.0183 -0.0137  0.1893
 -0.1070 -0.0267  0.0025
  0.0458  0.1714 -0.1391
 -0.1334 -0.1139  0.2063
  0.0303 -0.2264  0.0956
 -0.0636 -0.1770 -0.1623
  0.1606  0.1246  0.1864
  0.0537 -0.1762 -0.0675
  0.0011  0.1660  0.3918
 -0.0280 -0.0718  0.2207
 -0.5624 -0.4412  0.0053
  0.1108 -0.3899  0.6625
  0.2024 -0.0277  0.2892
 -0.2461  0.1101 -0.0742
 -0.0024  0.1559 -1.0943
 -0.1914  0.0888 -0.1365
  1.0796 -0.2581 -0.0407
 -0.0853  0.2811 -0.2835
 -0.1446  0.1442 -0.4349
  0.0060  0.4142  0.0275
  0.0295 -0.1258 -0.0548
  0.1417 -0.0758  0.3017
 -0.0085 -0.2034  0.0370
  0.0244  0.1133  0.0875
 -0.1222 -0.1086 -0.2209
 -0.1062 -0.0619 -0.0353
 -0.0221 -0.0304  0.1024
 -0.1266 -0.0128  0.3554
  0.0915 -1.0001  0.0104
 -0.0324  0.1653 -0.1384
 -0.0380  0.0814  0.0597
  0.0547 -0.1462  0.0595
  0.0492 -0.5489 -0.1187
  0.3799  0.0826 -0.3539
  0.0787  1.3681 -0.0813
 -0.0585  0.3127  0.2535
 -0.0023 -0.2015  0.0019
 -0.2844 -0.4231  0.1055
  0.0294  0.0448  0.1665
 -0.0255  0.0002 -0.2257
  0.0460  0.2682 -0.0268
 -0.0697  0.0160 -0.0275
 -0.1876 -0.1054  0.0882
 -0.0108 -0.1765  0.2186
  0.0381 -0.0694 -0.0999
  0.2130  0.1173  0.0666
 -0.0434 -0.1507 -0.2048
 -0.0274  0.1680 -0.0021
  0.0174  0.0134 -0.2722
 -0.0217  0.2078  0.0135
 -0.0371 -0.1052 -0.0333
  0.0695  0.1956  0.0326
  0.1961 -0.1925 -0.1108
 -0.0290 -0.0621  0.2405
 -0.0333 -0.0776  0.1663
 -0.1899  0.0133  0.1294
  0.0094 -0.0716 -0.0209
 -0.0648 -0.0054 -0.2607
 -0.0336  0.2340 -0.0067
  0.0473  0.0096  0.2038
  0.0908  0.0468  0.1665
 -0.2296  0.0373 -0.1164
  0.0710  0.0379 -0.0204
 -0.0752 -0.1741  0.0269
  0.1836 -0.2252  0.0505
  0.0618  0.1893 -0.0951
 -0.1732 -0.0260  0.0215
 -0.1214  0.0571 -0.0950
 -0.0550 -0.0979 -0.0478
  0.1088 -0.0242 -0.1298
  0.0136  0.0595  0.1501
  0.0220 -0.1680  0.0290
  0.1520  0.0234  0.0709
 -0.1046  0.1878 -0.0025
 -0.0348  0.1221 -0.1766
 -0.1461  0.0954  0.0824
  0.1282 -0.1413 -0.0814
  0.0164 -0.0393  0.0910
  0.0187  0.0658  0.0397
 -0.0001  0.1086 -0.0083
 -0.0543  0.1211  0.1660
 -0.1882 -0.0460 -0.0159
 -0.0120  0.0980  0.1488
 -0.0096 -0.1237  0.0496
  0.1585  0.0139  0.0559
  0.1118  0.1426 -0.0833
 End of Minotr F.D. properties file   721 does not exist.
 End of Minotr F.D. properties file   722 does not exist.
 Leave Link 1002 at Wed Oct 19 23:00:26 2011, MaxMem=  128000000 cpu:     233.8
 (Enter /home/foresman/gdv/l601.exe)
 Copying SCF densities to generalized density rwf, IOpCl= 0 IROHF=0.

 **********************************************************************

            Population analysis using the SCF density.

 **********************************************************************

 Orbital symmetries:
       Occupied  (A) (A) (A) (A) (A) (A) (A) (A) (A) (A) (A) (A)
                 (A) (A) (A) (A) (A) (A) (A) (A) (A) (A) (A) (A)
                 (A) (A) (A) (A) (A) (A) (A) (A) (A) (A) (A) (A)
                 (A) (A) (A) (A) (A) (A) (A) (A) (A) (A) (A) (A)
                 (A) (A) (A)
       Virtual   (A) (A) (A) (A) (A) (A) (A) (A) (A) (A) (A) (A)
                 (A) (A) (A) (A) (A) (A) (A) (A) (A) (A) (A) (A)
                 (A) (A) (A) (A) (A) (A) (A) (A) (A) (A) (A) (A)
                 (A) (A) (A) (A) (A) (A) (A) (A) (A) (A) (A) (A)
                 (A) (A) (A) (A) (A) (A) (A) (A) (A) (A) (A) (A)
                 (A) (A) (A) (A) (A) (A) (A) (A) (A) (A) (A) (A)
                 (A) (A) (A) (A) (A) (A) (A) (A) (A) (A) (A) (A)
                 (A) (A) (A) (A) (A) (A) (A) (A) (A) (A) (A) (A)
                 (A) (A) (A) (A)
 The electronic state is 1-A.
 Alpha  occ. eigenvalues --  -19.05518 -19.03061 -18.99324 -14.27417 -10.25655
 Alpha  occ. eigenvalues --  -10.18498 -10.18483 -10.16118 -10.15435 -10.12779
 Alpha  occ. eigenvalues --  -10.10697 -10.09909 -10.09861  -1.07532  -1.01293
 Alpha  occ. eigenvalues --   -0.99165  -0.93637  -0.80706  -0.77952  -0.73909
 Alpha  occ. eigenvalues --   -0.68741  -0.68363  -0.65453  -0.59701  -0.57926
 Alpha  occ. eigenvalues --   -0.54315  -0.52246  -0.49391  -0.47051  -0.44962
 Alpha  occ. eigenvalues --   -0.44620  -0.44066  -0.43875  -0.42512  -0.41601
 Alpha  occ. eigenvalues --   -0.41220  -0.38822  -0.38298  -0.37869  -0.36843
 Alpha  occ. eigenvalues --   -0.36730  -0.35987  -0.35585  -0.33745  -0.33682
 Alpha  occ. eigenvalues --   -0.31994  -0.31464  -0.26495  -0.26175  -0.24199
 Alpha  occ. eigenvalues --   -0.22474
 Alpha virt. eigenvalues --    0.06076   0.08345   0.10648   0.11985   0.13208
 Alpha virt. eigenvalues --    0.14224   0.15562   0.16388   0.17102   0.17315
 Alpha virt. eigenvalues --    0.17986   0.18054   0.18581   0.19206   0.19825
 Alpha virt. eigenvalues --    0.20485   0.21373   0.22101   0.22188   0.23947
 Alpha virt. eigenvalues --    0.24207   0.24759   0.25279   0.25695   0.26569
 Alpha virt. eigenvalues --    0.28447   0.28923   0.29554   0.29912   0.42501
 Alpha virt. eigenvalues --    0.49274   0.65273   0.66160   0.66515   0.67878
 Alpha virt. eigenvalues --    0.68505   0.69618   0.70432   0.71713   0.74197
 Alpha virt. eigenvalues --    0.75130   0.75446   0.76385   0.76637   0.77814
 Alpha virt. eigenvalues --    0.79950   0.82164   0.83253   0.86453   0.87870
 Alpha virt. eigenvalues --    0.91192   0.91796   0.93886   0.95797   0.96678
 Alpha virt. eigenvalues --    0.97801   1.00296   1.01566   1.02310   1.04280
 Alpha virt. eigenvalues --    1.05641   1.06760   1.07689   1.08613   1.08896
 Alpha virt. eigenvalues --    1.10023   1.10507   1.11367   1.11898   1.12865
 Alpha virt. eigenvalues --    1.13998   1.16358   1.16544   1.19234   1.23436
 Alpha virt. eigenvalues --    1.28958   1.45668   1.53168   1.55456   1.57245
 Alpha virt. eigenvalues --    1.61151   1.64284   1.66781   1.72090   1.72913
 Alpha virt. eigenvalues --    1.73964   1.77001   1.81418   1.87411   1.95493
 Alpha virt. eigenvalues --    1.99077   1.99194   2.14137   2.18086   2.26937
 Alpha virt. eigenvalues --    2.35201   2.85759   3.08444   3.31746   3.40564
          Condensed to atoms (all electrons):
              1          2          3          4          5          6
     1  C    5.283958   0.289709   0.249020   0.249182   0.197527  -0.050570
     2  C    0.289709   5.353077  -0.081805  -0.082095  -0.039027   0.003870
     3  C    0.249020  -0.081805   5.475114  -0.084783  -0.036206  -0.007957
     4  C    0.249182  -0.082095  -0.084783   5.476358  -0.036185  -0.007996
     5  O    0.197527  -0.039027  -0.036206  -0.036185   8.326399   0.230729
     6  C   -0.050570   0.003870  -0.007957  -0.007996   0.230729   4.287141
     7  O    0.001298   0.000064  -0.009653  -0.009899  -0.045566   0.468627
     8  N    0.002771  -0.000043  -0.000295  -0.000282  -0.077803   0.201511
     9  C   -0.000081  -0.000045   0.000027   0.000017   0.008708  -0.029503
    10  C   -0.000004   0.000000   0.000000   0.000000   0.000246   0.003610
    11  C    0.000001   0.000000   0.000000   0.000000  -0.000023   0.005882
    12  C   -0.000080   0.000001   0.000003   0.000005   0.001600  -0.051124
    13  O    0.000000   0.000000   0.000000   0.000000   0.000000  -0.000166
    14  H    0.000000   0.000000   0.000000   0.000000   0.000000  -0.000015
    15  H   -0.044668   0.350329   0.001176   0.001218   0.001904  -0.000040
    16  H   -0.038363   0.360529   0.004536  -0.003568   0.001990  -0.000006
    17  H   -0.038414   0.360284  -0.003574   0.004551   0.001986  -0.000002
    18  H   -0.035719  -0.000450   0.340049   0.000873   0.001574   0.000336
    19  H   -0.040210  -0.003142   0.358195   0.004350   0.001048   0.000474
    20  H   -0.036479   0.003585   0.342947  -0.004116  -0.003596   0.001921
    21  H   -0.035803  -0.000417   0.000873   0.339831   0.001573   0.000338
    22  H   -0.036577   0.003589  -0.004076   0.342412  -0.003613   0.001921
    23  H   -0.040158  -0.003132   0.004346   0.358200   0.001058   0.000462
    24  H   -0.000008   0.000001   0.000002  -0.000007   0.001140  -0.002254
    25  H   -0.000070   0.000030  -0.000011   0.000011   0.004396  -0.001901
    26  H    0.000000   0.000000   0.000000   0.000000   0.000001  -0.000142
    27  H    0.000000   0.000000   0.000000   0.000000   0.000000  -0.000012
    28  H    0.000000   0.000000   0.000000   0.000000   0.000000  -0.000067
    29  H    0.000001   0.000000   0.000001  -0.000002   0.000063   0.000422
    30  H    0.000001   0.000000  -0.000001   0.000000  -0.000009  -0.001942
              7          8          9         10         11         12
     1  C    0.001298   0.002771  -0.000081  -0.000004   0.000001  -0.000080
     2  C    0.000064  -0.000043  -0.000045   0.000000   0.000000   0.000001
     3  C   -0.009653  -0.000295   0.000027   0.000000   0.000000   0.000003
     4  C   -0.009899  -0.000282   0.000017   0.000000   0.000000   0.000005
     5  O   -0.045566  -0.077803   0.008708   0.000246  -0.000023   0.001600
     6  C    0.468627   0.201511  -0.029503   0.003610   0.005882  -0.051124
     7  O    8.147771  -0.070654   0.001131  -0.000029   0.000198   0.003210
     8  N   -0.070654   7.397182   0.231752  -0.057219  -0.051590   0.252280
     9  C    0.001131   0.231752   5.190155   0.244181  -0.090612  -0.085857
    10  C   -0.000029  -0.057219   0.244181   5.528131   0.224263  -0.090472
    11  C    0.000198  -0.051590  -0.090612   0.224263   5.330022   0.180728
    12  C    0.003210   0.252280  -0.085857  -0.090472   0.180728   5.350213
    13  O    0.000000  -0.001056   0.009163  -0.058359   0.242002  -0.040213
    14  H   -0.000002  -0.000033  -0.000235   0.007113  -0.047124  -0.003084
    15  H    0.000002   0.000000   0.000001   0.000000   0.000000   0.000000
    16  H    0.000001  -0.000006   0.000028   0.000000   0.000000   0.000000
    17  H    0.000001  -0.000005  -0.000001   0.000000   0.000000   0.000000
    18  H    0.000083   0.000001   0.000000   0.000000   0.000000   0.000000
    19  H    0.000033  -0.000006  -0.000002   0.000000   0.000000   0.000000
    20  H    0.023786   0.000144  -0.000007   0.000000   0.000000   0.000003
    21  H    0.000088   0.000001   0.000000   0.000000   0.000000   0.000000
    22  H    0.024326   0.000143  -0.000012   0.000000   0.000000   0.000003
    23  H    0.000035  -0.000009   0.000004   0.000000   0.000000   0.000000
    24  H    0.000017  -0.042268   0.364025  -0.044989  -0.003340   0.003539
    25  H    0.000011  -0.035569   0.369334  -0.033498   0.004557   0.002125
    26  H    0.000000   0.001066  -0.037264   0.349790  -0.041503   0.003858
    27  H    0.000000   0.002222  -0.033143   0.367123  -0.033234   0.005097
    28  H    0.000000   0.002180   0.005604  -0.047894   0.360250  -0.059935
    29  H    0.006421  -0.040205   0.002467   0.004547  -0.029528   0.359300
    30  H    0.000323  -0.040606   0.004412  -0.001888  -0.032762   0.329038
             13         14         15         16         17         18
     1  C    0.000000   0.000000  -0.044668  -0.038363  -0.038414  -0.035719
     2  C    0.000000   0.000000   0.350329   0.360529   0.360284  -0.000450
     3  C    0.000000   0.000000   0.001176   0.004536  -0.003574   0.340049
     4  C    0.000000   0.000000   0.001218  -0.003568   0.004551   0.000873
     5  O    0.000000   0.000000   0.001904   0.001990   0.001986   0.001574
     6  C   -0.000166  -0.000015  -0.000040  -0.000006  -0.000002   0.000336
     7  O    0.000000  -0.000002   0.000002   0.000001   0.000001   0.000083
     8  N   -0.001056  -0.000033   0.000000  -0.000006  -0.000005   0.000001
     9  C    0.009163  -0.000235   0.000001   0.000028  -0.000001   0.000000
    10  C   -0.058359   0.007113   0.000000   0.000000   0.000000   0.000000
    11  C    0.242002  -0.047124   0.000000   0.000000   0.000000   0.000000
    12  C   -0.040213  -0.003084   0.000000   0.000000   0.000000   0.000000
    13  O    8.170264   0.243287   0.000000   0.000000   0.000000   0.000000
    14  H    0.243287   0.462708   0.000000   0.000000   0.000000   0.000000
    15  H    0.000000   0.000000   0.550443  -0.023918  -0.023967   0.001662
    16  H    0.000000   0.000000  -0.023918   0.523584  -0.025853  -0.000083
    17  H    0.000000   0.000000  -0.023967  -0.025853   0.525262   0.000159
    18  H    0.000000   0.000000   0.001662  -0.000083   0.000159   0.555030
    19  H    0.000000   0.000000   0.000126  -0.000049   0.003758  -0.024751
    20  H    0.000000   0.000000   0.000011  -0.000085  -0.000047  -0.020816
    21  H    0.000000   0.000000   0.001655   0.000159  -0.000083   0.001165
    22  H    0.000000   0.000000   0.000011  -0.000046  -0.000085   0.000218
    23  H    0.000000   0.000000   0.000124   0.003749  -0.000049  -0.000070
    24  H    0.006910  -0.000328   0.000000   0.000028  -0.000005   0.000000
    25  H    0.000128  -0.000001   0.000000  -0.000013   0.000097   0.000000
    26  H    0.001807  -0.000182   0.000000   0.000000   0.000000   0.000000
    27  H    0.002313  -0.000117   0.000000   0.000000   0.000000   0.000000
    28  H   -0.032278  -0.001493   0.000000   0.000000   0.000000   0.000000
    29  H   -0.001861   0.003845   0.000000   0.000000   0.000000   0.000000
    30  H    0.001748   0.000020   0.000000   0.000000   0.000000   0.000000
             19         20         21         22         23         24
     1  C   -0.040210  -0.036479  -0.035803  -0.036577  -0.040158  -0.000008
     2  C   -0.003142   0.003585  -0.000417   0.003589  -0.003132   0.000001
     3  C    0.358195   0.342947   0.000873  -0.004076   0.004346   0.000002
     4  C    0.004350  -0.004116   0.339831   0.342412   0.358200  -0.000007
     5  O    0.001048  -0.003596   0.001573  -0.003613   0.001058   0.001140
     6  C    0.000474   0.001921   0.000338   0.001921   0.000462  -0.002254
     7  O    0.000033   0.023786   0.000088   0.024326   0.000035   0.000017
     8  N   -0.000006   0.000144   0.000001   0.000143  -0.000009  -0.042268
     9  C   -0.000002  -0.000007   0.000000  -0.000012   0.000004   0.364025
    10  C    0.000000   0.000000   0.000000   0.000000   0.000000  -0.044989
    11  C    0.000000   0.000000   0.000000   0.000000   0.000000  -0.003340
    12  C    0.000000   0.000003   0.000000   0.000003   0.000000   0.003539
    13  O    0.000000   0.000000   0.000000   0.000000   0.000000   0.006910
    14  H    0.000000   0.000000   0.000000   0.000000   0.000000  -0.000328
    15  H    0.000126   0.000011   0.001655   0.000011   0.000124   0.000000
    16  H   -0.000049  -0.000085   0.000159  -0.000046   0.003749   0.000028
    17  H    0.003758  -0.000047  -0.000083  -0.000085  -0.000049  -0.000005
    18  H   -0.024751  -0.020816   0.001165   0.000218  -0.000070   0.000000
    19  H    0.535549  -0.023397  -0.000069   0.000010  -0.000098   0.000000
    20  H   -0.023397   0.484582   0.000222   0.002933   0.000009   0.000000
    21  H   -0.000069   0.000222   0.555363  -0.020715  -0.024698   0.000000
    22  H    0.000010   0.002933  -0.020715   0.484965  -0.023351   0.000004
    23  H   -0.000098   0.000009  -0.024698  -0.023351   0.534885   0.000011
    24  H    0.000000   0.000000   0.000000   0.000004   0.000011   0.524105
    25  H    0.000013   0.000003   0.000000   0.000000  -0.000001  -0.034428
    26  H    0.000000   0.000000   0.000000   0.000000   0.000000   0.003522
    27  H    0.000000   0.000000   0.000000   0.000000   0.000000  -0.001212
    28  H    0.000000   0.000000   0.000000   0.000000   0.000000   0.000011
    29  H    0.000000  -0.000005   0.000000   0.000014   0.000000   0.000279
    30  H    0.000000   0.000003   0.000000  -0.000001   0.000000  -0.000231
             25         26         27         28         29         30
     1  C   -0.000070   0.000000   0.000000   0.000000   0.000001   0.000001
     2  C    0.000030   0.000000   0.000000   0.000000   0.000000   0.000000
     3  C   -0.000011   0.000000   0.000000   0.000000   0.000001  -0.000001
     4  C    0.000011   0.000000   0.000000   0.000000  -0.000002   0.000000
     5  O    0.004396   0.000001   0.000000   0.000000   0.000063  -0.000009
     6  C   -0.001901  -0.000142  -0.000012  -0.000067   0.000422  -0.001942
     7  O    0.000011   0.000000   0.000000   0.000000   0.006421   0.000323
     8  N   -0.035569   0.001066   0.002222   0.002180  -0.040205  -0.040606
     9  C    0.369334  -0.037264  -0.033143   0.005604   0.002467   0.004412
    10  C   -0.033498   0.349790   0.367123  -0.047894   0.004547  -0.001888
    11  C    0.004557  -0.041503  -0.033234   0.360250  -0.029528  -0.032762
    12  C    0.002125   0.003858   0.005097  -0.059935   0.359300   0.329038
    13  O    0.000128   0.001807   0.002313  -0.032278  -0.001861   0.001748
    14  H   -0.000001  -0.000182  -0.000117  -0.001493   0.003845   0.000020
    15  H    0.000000   0.000000   0.000000   0.000000   0.000000   0.000000
    16  H   -0.000013   0.000000   0.000000   0.000000   0.000000   0.000000
    17  H    0.000097   0.000000   0.000000   0.000000   0.000000   0.000000
    18  H    0.000000   0.000000   0.000000   0.000000   0.000000   0.000000
    19  H    0.000013   0.000000   0.000000   0.000000   0.000000   0.000000
    20  H    0.000003   0.000000   0.000000   0.000000  -0.000005   0.000003
    21  H    0.000000   0.000000   0.000000   0.000000   0.000000   0.000000
    22  H    0.000000   0.000000   0.000000   0.000000   0.000014  -0.000001
    23  H   -0.000001   0.000000   0.000000   0.000000   0.000000   0.000000
    24  H   -0.034428   0.003522  -0.001212   0.000011   0.000279  -0.000231
    25  H    0.515237  -0.003649   0.000217   0.000002  -0.000118   0.000234
    26  H   -0.003649   0.544001  -0.021000  -0.000016   0.000002   0.000350
    27  H    0.000217  -0.021000   0.494199  -0.001469  -0.000059  -0.000188
    28  H    0.000002  -0.000016  -0.001469   0.588022  -0.000216   0.004109
    29  H   -0.000118   0.000002  -0.000059  -0.000216   0.517916  -0.036516
    30  H    0.000234   0.000350  -0.000188   0.004109  -0.036516   0.567790
 Mulliken charges:
              1
     1  C    0.123734
     2  C   -0.514911
     3  C   -0.547929
     4  C   -0.548076
     5  O   -0.539914
     6  C    0.946452
     7  O   -0.541624
     8  N   -0.673602
     9  C   -0.154245
    10  C   -0.394652
    11  C   -0.018187
    12  C   -0.160238
    13  O   -0.543687
    14  H    0.335640
    15  H    0.183931
    16  H    0.197385
    17  H    0.195985
    18  H    0.180738
    19  H    0.188171
    20  H    0.228401
    21  H    0.180517
    22  H    0.227926
    23  H    0.188685
    24  H    0.225477
    25  H    0.212861
    26  H    0.199359
    27  H    0.219262
    28  H    0.183190
    29  H    0.213234
    30  H    0.206116
 Sum of Mulliken charges =   0.00000
 Mulliken charges with hydrogens summed into heavy atoms:
              1
     1  C    0.123734
     2  C    0.062390
     3  C    0.049381
     4  C    0.049052
     5  O   -0.539914
     6  C    0.946452
     7  O   -0.541624
     8  N   -0.673602
     9  C    0.284093
    10  C    0.023969
    11  C    0.165003
    12  C    0.259112
    13  O   -0.208046
 Sum of Mulliken charges with hydrogens summed into heavy atoms =   0.00000
 APT charges:
              1
     1  C    0.649099
     2  C   -0.027481
     3  C   -0.106803
     4  C   -0.107472
     5  O   -0.961485
     6  C    1.431373
     7  O   -0.786878
     8  N   -0.865712
     9  C    0.330136
    10  C    0.035569
    11  C    0.449793
    12  C    0.277483
    13  O   -0.512904
    14  H    0.207470
    15  H   -0.002410
    16  H    0.008904
    17  H    0.008346
    18  H   -0.002131
    19  H    0.000860
    20  H    0.080042
    21  H   -0.001311
    22  H    0.079042
    23  H    0.001224
    24  H   -0.023373
    25  H   -0.007166
    26  H   -0.010121
    27  H    0.013356
    28  H   -0.085929
    29  H   -0.012091
    30  H   -0.059429
 Sum of APT charges =   0.00000
 APT charges with hydrogens summed into heavy atoms:
              1
     1  C    0.649099
     2  C   -0.012642
     3  C   -0.028032
     4  C   -0.028516
     5  O   -0.961485
     6  C    1.431373
     7  O   -0.786878
     8  N   -0.865712
     9  C    0.299596
    10  C    0.038804
    11  C    0.363864
    12  C    0.205963
    13  O   -0.305434
 Sum of APT charges with hydrogens summed into heavy atoms =   0.00000
 Electronic spatial extent (au):  <R**2>=           3084.5208
 Charge=              0.0000 electrons
 Dipole moment (field-independent basis, Debye):
    X=              1.4095    Y=              0.6511    Z=             -0.3009  Tot=              1.5815
 Quadrupole moment (field-independent basis, Debye-Ang):
   XX=            -69.0526   YY=            -81.2515   ZZ=            -77.9468
   XY=             -7.0963   XZ=             -2.6781   YZ=             -3.5749
 Traceless Quadrupole moment (field-independent basis, Debye-Ang):
   XX=              7.0310   YY=             -5.1678   ZZ=             -1.8632
   XY=             -7.0963   XZ=             -2.6781   YZ=             -3.5749
 Octapole moment (field-independent basis, Debye-Ang**2):
  XXX=              7.3555  YYY=              7.5980  ZZZ=              6.7037  XYY=             18.3646
  XXY=            -21.2700  XXZ=             -4.1089  XZZ=              6.6361  YZZ=             -6.1719
  YYZ=              5.1467  XYZ=             -9.4837
 Hexadecapole moment (field-independent basis, Debye-Ang**3):
 XXXX=          -2957.3854 YYYY=           -596.3346 ZZZZ=           -367.1295 XXXY=            -71.8053
 XXXZ=             -7.6052 YYYX=             -7.0615 YYYZ=             -5.6389 ZZZX=             31.9547
 ZZZY=             -8.7266 XXYY=           -582.4527 XXZZ=           -570.7925 YYZZ=           -151.3927
 XXYZ=            -35.0580 YYXZ=             16.4713 ZZXY=            -23.2897
 N-N= 8.809974535122D+02 E-N=-3.231788027138D+03  KE= 6.248589678685D+02
  Exact polarizability: 126.230   0.445  96.941  -3.094  -1.062  86.627
 Approx polarizability: 146.443   5.279 149.056  -3.731   0.599 120.071
 Calculating spin-rotation constants.
 Leave Link  601 at Wed Oct 19 23:00:30 2011, MaxMem=  128000000 cpu:      32.1
 (Enter /home/foresman/gdv/l701.exe)
 Compute integral second derivatives.
 ... and contract with generalized density number  0.
 Leave Link  701 at Wed Oct 19 23:00:31 2011, MaxMem=  128000000 cpu:       1.4
 (Enter /home/foresman/gdv/l702.exe)
 L702 exits ... SP integral derivatives will be done elsewhere.
 Leave Link  702 at Wed Oct 19 23:00:31 2011, MaxMem=  128000000 cpu:       0.3
 (Enter /home/foresman/gdv/l703.exe)
 Compute integral second derivatives, UseDBF=F ICtDFT=           0.
 Integral derivatives from FoFJK, PRISM(SPDF).
 Calling FoFJK, ICntrl=    100127 FMM=F ISym2X=0 I1Cent= 0 IOpClX= 0 NMat=1 NMatS=1 NMatT=0.
 FoFJK:  IHMeth= 1 ICntrl=  100127 DoSepK=F KAlg= 0 I1Cent=   0 FoldK=F
 IRaf=       0 NMat=   1 IRICut=       1 DoRegI=T DoRafI=F ISym2E= 0.
 FoFCou: FMM=F IPFlag=           0 FMFlag=      100000 FMFlg1=         800
         NFxFlg=           0 DoJE=F BraDBF=F KetDBF=F FulRan=T
         wScrn=  0.000000 ICntrl=  100127 IOpCl=  0 I1Cent=           0 NGrid=           0
         NMat0=    1 NMatS0=      1 NMatT0=    0 NMatD0=    1 NMtDS0=    0 NMtDT0=    0
 Symmetry not used in FoFCou.
 Leave Link  703 at Wed Oct 19 23:01:05 2011, MaxMem=  128000000 cpu:     273.3
 (Enter /home/foresman/gdv/l716.exe)
 Dipole        = 5.54545668D-01 2.56145070D-01-1.18394582D-01
 Polarizability= 1.26229510D+02 4.45458925D-01 9.69410077D+01
                -3.09369952D+00-1.06249171D+00 8.66265107D+01
 AAT           =-2.48447055D-02-8.97334866D-02-1.81414172D-01
                -1.42947106D-02 4.87709972D-04-3.68409556D-01
                 1.09308800D-01 3.66302112D-01 9.71055198D-03
                 9.51579429D-03-6.43335133D-03 1.62649444D-01
                 1.83348902D-02-1.37281445D-02 1.89254380D-01
                -1.06955339D-01-2.66793054D-02 2.54088255D-03
                 4.58315230D-02 1.71415767D-01-1.39129940D-01
                -1.33364547D-01-1.13892209D-01 2.06331287D-01
                 3.02836576D-02-2.26351860D-01 9.55965319D-02
                -6.35980454D-02-1.76969026D-01-1.62295704D-01
                 1.60599427D-01 1.24570765D-01 1.86383550D-01
                 5.36664159D-02-1.76173075D-01-6.75070657D-02
                 1.14357078D-03 1.65973339D-01 3.91797531D-01
                -2.79714753D-02-7.18106140D-02 2.20665462D-01
                -5.62411745D-01-4.41205548D-01 5.28201665D-03
                 1.10789351D-01-3.89943276D-01 6.62483640D-01
                 2.02360619D-01-2.77009388D-02 2.89150660D-01
                -2.46065668D-01 1.10096159D-01-7.42023195D-02
                -2.41736376D-03 1.55860253D-01-1.09425083D+00
                -1.91365671D-01 8.88005182D-02-1.36537805D-01
                 1.07959884D+00-2.58095805D-01-4.06976837D-02
                -8.53458480D-02 2.81114506D-01-2.83502488D-01
                -1.44640132D-01 1.44220136D-01-4.34930558D-01
                 5.99494350D-03 4.14189465D-01 2.74580650D-02
                 2.94514914D-02-1.25848425D-01-5.47804493D-02
                 1.41741565D-01-7.58491397D-02 3.01746559D-01
                -8.46615601D-03-2.03413759D-01 3.69713427D-02
                 2.44448384D-02 1.13270206D-01 8.74691863D-02
                -1.22171049D-01-1.08614711D-01-2.20906502D-01
                -1.06196625D-01-6.18915960D-02-3.53475110D-02
                -2.21165073D-02-3.03942637D-02 1.02414017D-01
                -1.26582392D-01-1.27527030D-02 3.55408914D-01
                 9.14510585D-02-1.00013125D+00 1.03915802D-02
                -3.23504925D-02 1.65262980D-01-1.38390354D-01
                -3.80103652D-02 8.13938706D-02 5.97092208D-02
                 5.46543937D-02-1.46194483D-01 5.94589870D-02
                 4.92075305D-02-5.48895543D-01-1.18689172D-01
                 3.79938718D-01 8.26379499D-02-3.53925319D-01
                 7.86606954D-02 1.36808004D+00-8.12574384D-02
                -5.84911161D-02 3.12664343D-01 2.53476030D-01
                -2.28189779D-03-2.01515070D-01 1.88660322D-03
                -2.84393015D-01-4.23119121D-01 1.05469645D-01
                 2.93759359D-02 4.48246533D-02 1.66454010D-01
                -2.54624892D-02 1.90332919D-04-2.25726355D-01
                 4.60173061D-02 2.68183967D-01-2.67833506D-02
                -6.96928298D-02 1.60466952D-02-2.74688325D-02
                -1.87639196D-01-1.05426736D-01 8.82093835D-02
                -1.07963316D-02-1.76470446D-01 2.18584800D-01
                 3.81269727D-02-6.93650528D-02-9.98656102D-02
                 2.13042747D-01 1.17309896D-01 6.65880111D-02
                -4.33895768D-02-1.50697278D-01-2.04769665D-01
                -2.73850069D-02 1.68039691D-01-2.09281923D-03
                 1.74073596D-02 1.33807408D-02-2.72239690D-01
                -2.17464683D-02 2.07845381D-01 1.35299418D-02
                -3.71447535D-02-1.05197897D-01-3.33150007D-02
                 6.95438908D-02 1.95552190D-01 3.26420412D-02
                 1.96069232D-01-1.92463676D-01-1.10793480D-01
                -2.89673778D-02-6.21047405D-02 2.40454692D-01
                -3.33310378D-02-7.76255869D-02 1.66293928D-01
                -1.89859355D-01 1.33124791D-02 1.29351846D-01
                 9.36935252D-03-7.16462305D-02-2.08546768D-02
                -6.47985681D-02-5.42845934D-03-2.60720676D-01
                -3.35562200D-02 2.34005415D-01-6.70256702D-03
                 4.72802241D-02 9.55065645D-03 2.03849937D-01
                 9.07508890D-02 4.67834979D-02 1.66535163D-01
                -2.29552810D-01 3.73146417D-02-1.16351451D-01
                 7.10223131D-02 3.78950764D-02-2.04131400D-02
                -7.51582436D-02-1.74082357D-01 2.68691475D-02
                 1.83607885D-01-2.25187266D-01 5.05266930D-02
                 6.17796258D-02 1.89289358D-01-9.50566341D-02
                -1.73201169D-01-2.60366116D-02 2.15159157D-02
                -1.21427462D-01 5.70597242D-02-9.50001307D-02
                -5.49669869D-02-9.78727542D-02-4.77679983D-02
                 1.08787594D-01-2.41874147D-02-1.29844550D-01
                 1.36336247D-02 5.95061401D-02 1.50118629D-01
                 2.20282327D-02-1.68038427D-01 2.90284359D-02
                 1.51997594D-01 2.33859125D-02 7.08605437D-02
                -1.04644551D-01 1.87756676D-01-2.49526568D-03
                -3.47933473D-02 1.22127447D-01-1.76639181D-01
                -1.46148486D-01 9.54272010D-02 8.23605103D-02
[...]
 0.00018138,0.00034163,-0.00011351,-0.00033629,-0.00003194,0.00005287,0
 .00001745,-0.00004359,0.00001094,0.00012276,0.00001304,-0.00001831,-0.
 00001192,-0.00002384,0.00001797,0.00003936,0.00001951,0.00001922,0.000
 00373,-0.00002259,0.00010908,-0.00001245,-0.00003264,0.00002441,0.0000
 2405,-0.00003637,0.00005211,-0.00013594,-0.00000482,0.00002791,0.00007
 772,-0.02722678,0.11233663,0.00001013,0.00010360,-0.00026588,0.0000008
 6,-0.00003325,-0.00001168,-0.00002000,-0.00005720,0.00004946,-0.000018
 74,0.00000301,0.00000115,-0.00062433,-0.00030290,0.00056240,0.00061185
 ,0.00088849,0.00060135,-0.00046001,-0.00031049,-0.00046078,0.00029335,
 0.00296090,0.00966716,0.03926486,-0.10515874,-0.25396127,0.00283217,-0
 .00917340,-0.02277565,-0.00045408,-0.00116758,-0.00133948,0.00007703,0
 .00032042,-0.00073964,-0.00109703,-0.00070769,0.00119133,-0.00034658,0
 .00001888,0.00042940,-0.00001577,0.00000880,0.00000650,-0.00000258,0.0
 0000433,0.00004635,0.00000576,-0.00000943,-0.00001276,0.00000208,-0.00
 003154,0.00000025,0.00000711,0.00001610,-0.00000149,-0.00001522,0.0000
 3437,0.00000160,0.00000707,-0.00000052,0.00000525,-0.00000888,-0.00000
 209,-0.00002075,0.00000098,0.00000166,0.00001823,-0.04263059,0.1117716
 0,0.27462661,0.00033705,-0.00003080,0.00003716,-0.00001169,0.00003891,
 -0.00007202,-0.00005748,0.00001774,-0.00000090,-0.00004192,-0.00008604
 ,0.00004958,0.00240781,0.00028982,0.00025889,-0.00267196,-0.00462188,0
 .00247002,-0.00027907,0.00143540,-0.00027069,-0.02871213,-0.00843063,-
 0.00399233,-0.19425807,-0.12457100,-0.04996577,-0.00049139,-0.00118391
 ,0.00003600,-0.00049232,0.00105145,-0.00008275,-0.00171334,0.00046891,
 -0.00333753,0.00036893,0.00003088,-0.00014874,0.00006584,0.00015417,-0
 .00001145,0.00002159,-0.00000443,0.00001163,0.00000202,0.00000282,0.00
 000073,0.00004473,0.00002632,0.00000908,0.00003702,-0.00000131,0.00001
 219,0.00003443,0.00004323,0.00002105,0.,-0.00011302,-0.00000613,0.0000
 4195,0.00001514,0.00001743,0.00003015,-0.00003350,0.00005397,-0.000009
 10,0.00000267,0.00000510,0.00615765,0.00262041,0.00120282,0.22041593,-
 0.00000051,-0.00039043,-0.00009674,0.00003207,0.00002513,0.00004694,0.
 00005050,-0.00006937,0.00006204,0.00003280,0.00010934,-0.00006828,-0.0
 0023716,-0.00125331,0.00106912,0.00072139,0.00266030,-0.00068586,0.000
 40255,-0.00103184,-0.00039347,0.02044159,0.01076605,0.00582484,-0.1307
 0361,-0.15508101,-0.04730351,-0.01560473,-0.01143052,-0.00668124,0.000
 20663,-0.00267115,0.00282942,0.00220276,-0.00127216,0.00118849,-0.0002
 0788,0.00020937,0.00037022,-0.00003517,0.00008086,0.00000920,0.0000019
 0,-0.00000809,-0.00001681,-0.00000799,-0.00001206,-0.00002650,-0.00003
 398,-0.00000616,0.00001166,-0.00002473,-0.00001766,-0.00001706,-0.0000
 1367,-0.00001817,-0.00001161,-0.00000532,0.00003666,-0.00000225,-0.000
 02836,0.00000296,-0.00003581,0.00000702,0.00000293,-0.00000802,-0.0000
 0446,-0.00000471,0.00000961,-0.01143451,-0.00865463,-0.00278479,0.1338
 2946,0.16674155,0.00019681,0.00031664,-0.00003007,-0.00002988,-0.00001
 660,-0.00003568,0.00002652,-0.00000198,0.00003695,0.00000797,-0.000163
 46,0.00004979,0.00129560,0.00014745,-0.00070765,-0.00159925,-0.0021449
 9,0.00203157,-0.00005163,0.00066623,-0.00025781,-0.00249921,0.00301791
 ,0.00021182,-0.04942246,-0.04651292,-0.06875797,0.02010659,0.01433428,
 0.00514033,0.00184835,0.00295070,-0.00395356,0.00075019,0.00076262,-0.
 00118975,-0.00063459,-0.00054290,0.00079572,-0.00015471,0.00004662,0.0
 0005414,0.00003925,-0.00004867,0.00003832,-0.00001004,-0.00000582,-0.0
 0010777,0.00005487,0.00011997,0.00004803,0.00001575,-0.00002139,-0.000
 00920,-0.00001532,0.00002008,0.00001877,0.00001733,-0.00004395,-0.0000
 0316,0.00003613,0.00001050,0.00005816,0.00002061,-0.00002248,0.0000310
 6,-0.00002863,-0.00000467,0.00000045,-0.02307365,-0.01972315,-0.006846
 49,0.05213229,0.04721734,0.07165736,0.00002885,0.00008673,-0.00008546,
 0.00000379,-0.00000206,0.00001914,0.00000610,-0.00002352,0.00002263,-0
 .00000088,-0.00001460,0.00001651,-0.00010328,-0.00013796,0.00003817,-0
 .00003559,0.00039168,-0.00016175,0.00014503,-0.00013376,0.00006112,0.0
 0005890,0.00000169,-0.00003173,-0.00069558,0.00350804,0.01186920,-0.05
 513588,-0.00836969,-0.02791439,-0.00108903,-0.01340261,-0.03088908,0.0
 0069865,-0.00027174,-0.00006576,-0.00752829,-0.00089935,-0.00215440,-0
 .00013653,-0.00138791,-0.00175895,-0.00000404,-0.00000800,0.00000215,0
 .00000603,0.00000331,-0.00001090,0.00000115,0.00000121,-0.00000376,-0.
 00000169,-0.00001252,-0.00000033,-0.00000075,0.00000172,-0.00000343,-0
 .00000222,0.00001842,-0.00000344,0.00000121,-0.00000708,0.00000875,-0.
 00000504,0.00000560,-0.00001714,-0.00000304,0.00000164,-0.00000897,0.0
 0035985,-0.00205565,0.00150129,0.00026989,0.00051868,0.00000267,0.0592
 8345,0.00001374,-0.00000951,0.00000753,0.00000260,0.00000976,0.0000070
 1,0.00000420,-0.00000252,0.00001299,-0.00000399,0.00000264,-0.00000024
 ,0.00016789,-0.00005588,-0.00012055,-0.00020641,-0.00033933,0.00014279
 ,0.00001323,0.00010912,-0.00001413,-0.00121145,0.00063272,-0.00104795,
 0.00264866,0.00854063,0.02515965,-0.00989710,-0.09309671,-0.09640970,0
 .00105390,-0.00542393,-0.00745829,0.00037008,0.00021734,0.00012810,-0.
 00263543,0.00019744,-0.00095791,-0.00053662,-0.00005869,-0.00058487,0.
 00000224,-0.00000471,-0.00000303,0.00000537,-0.00000114,-0.00001419,-0
 .00000377,0.00000148,0.00000216,0.00000195,-0.00000085,-0.00000966,-0.
 00000830,-0.00000777,-0.00000020,0.00000604,-0.00001454,0.00000424,0.0
 0000262,-0.00000171,-0.00000162,0.00000241,-0.00000396,0.00000770,-0.0
 0000227,-0.00000298,-0.00000999,-0.00032885,-0.00263518,0.00328164,0.0
 0011987,0.00153489,-0.00067962,0.01569685,0.10017915,-0.00004235,-0.00
 011209,0.00004929,-0.00000288,-0.00000085,-0.00002202,-0.00001057,0.00
 002522,-0.00002597,0.00000576,0.00001800,-0.00001863,-0.00010672,0.000
 22959,0.00005813,0.00004154,-0.00009724,-0.00016058,-0.00016642,0.0001
 5314,-0.00003415,0.00037251,0.00025793,0.00135708,-0.00129029,-0.00952
 440,-0.02317101,-0.02900910,-0.09602663,-0.26731153,0.00176514,-0.0014
 3587,-0.00439346,0.00025209,-0.00029754,-0.00059363,-0.00130658,0.0001
 4149,0.00085627,0.00017371,-0.00013969,0.00017810,0.00000103,0.0000143
 0,-0.00000365,-0.00001343,-0.00000044,0.00002692,0.00000230,-0.0000077
 8,0.00000228,-0.00000009,0.00001290,0.00000846,0.00001623,0.00000621,0
 .00000446,-0.00000767,-0.00001111,-0.00000713,-0.00000251,0.00001271,-
 0.00001022,0.00000514,-0.00000824,0.00000774,-0.00000107,0.00000302,0.
 00002446,0.00023307,0.00359414,-0.00168419,0.00043229,-0.00013462,0.00
 142566,0.02984996,0.10337227,0.29363977,0.00000628,-0.00007378,0.00006
 999,-0.00000324,0.00001447,-0.00000912,-0.00000780,0.00002150,-0.00001
 158,-0.00000971,0.00001450,-0.00000888,0.00020711,0.00013397,-0.000168
 30,0.00024004,-0.00004837,0.00010502,0.00027189,0.00007417,-0.00007136
 ,-0.00072834,-0.00185435,0.00165209,0.00532878,-0.00872654,-0.00089029
 ,-0.12887743,0.12337526,0.01434806,-0.02089866,0.03000489,0.00222829,-
 0.00555918,-0.00200134,-0.00201794,0.00310933,-0.00013523,0.00225311,0
 .00109923,-0.00020063,0.00049554,0.00000488,0.00000518,-0.00000464,0.0
 0000067,-0.00000210,0.00000381,-0.00000112,-0.00000415,0.00000006,0.00
 000475,0.00000974,-0.00000265,0.00000059,-0.00000307,0.00000063,0.0000
 0626,-0.00001652,0.00000109,0.00000351,0.00000438,-0.00000872,0.000007
 04,-0.00000863,0.00001661,0.00000271,-0.00000289,0.00000073,0.00061113
 ,0.00058761,-0.00053780,-0.00028717,0.00000477,-0.00025929,0.00310559,
 -0.00548276,-0.00004737,0.14209541,0.00007110,0.00023412,-0.00019546,0
 .00000606,-0.00003235,0.00001785,0.00000341,-0.00005289,0.00003476,0.0
 0000466,-0.00005270,0.00003669,-0.00031818,-0.00034051,0.00033553,0.00
 070107,0.00118476,-0.00070523,0.00043391,-0.00063970,0.00026631,-0.000
 86535,-0.00266007,0.00307687,0.01263016,-0.01550455,-0.00460995,0.1256
 8299,-0.23879920,-0.02125071,-0.00608162,0.00678525,0.00044512,-0.0025
 7962,-0.00027449,-0.00072065,0.00022461,0.00035067,0.00046781,-0.00020
 251,0.00012478,0.00022774,-0.00001499,-0.00000716,0.00001107,0.0000071
 5,0.00000942,0.00000406,0.00000872,0.00000138,-0.00001121,-0.00000505,
 -0.00002770,0.00000664,-0.00000118,0.00001221,-0.00000363,-0.00000884,
 0.00006499,0.00000095,0.00000240,-0.00001016,0.00002532,-0.00001787,0.
 00001680,-0.00005325,-0.00000467,0.00000863,-0.00000266,0.00000026,0.0
 0138047,0.00007333,-0.00034665,-0.00055678,0.00029105,0.00642684,-0.00
 990053,-0.00041845,-0.13652135,0.25786277,-0.00003419,-0.00013038,0.00
 010597,-0.00000665,0.00002507,-0.00000628,-0.00000727,0.00002969,-0.00
 002070,-0.00001108,0.00003680,-0.00001974,0.00017707,0.00013964,-0.000
 19611,-0.00119031,-0.00044030,0.00055573,-0.00037174,0.00070084,-0.000
 42636,-0.00046823,0.00465933,-0.00296333,-0.01383032,0.01721622,0.0020
 7064,0.01731503,-0.02304276,-0.05152813,-0.00202450,0.00217990,-0.0008
 9695,-0.00029234,0.00089701,-0.00105774,-0.00075308,0.00076642,0.00003
 228,0.00048652,-0.00015960,-0.00011709,0.00000950,0.00000245,-0.000006
 30,-0.00000079,-0.00000392,-0.00000198,-0.00000291,-0.00000367,0.00000
 256,0.00000359,0.00001459,-0.00000001,0.00000712,-0.00000334,-0.000000
 51,-0.00000030,-0.00003936,-0.00000642,0.00000062,0.00000263,-0.000015
 80,0.00001161,-0.00000835,0.00003995,0.00000771,-0.00000480,-0.0000031
 7,-0.00040043,-0.00040426,0.00055177,0.00039598,0.00022819,-0.00002305
 ,0.01861581,-0.02542154,-0.00141101,-0.01724555,0.02268215,0.05520701,
 0.00011327,0.00002950,-0.00006958,-0.00000870,0.00002090,-0.00001558,0
 .00000225,-0.00002641,0.00001035,0.00000292,-0.00001630,0.00001742,0.0
 0013273,0.00001480,-0.00009678,0.00058961,0.00032020,-0.00000794,0.000
 26729,-0.00012441,0.00003729,-0.00170879,0.00317148,-0.00112339,-0.006
 19588,-0.00056241,-0.00177902,-0.01213647,-0.01720239,0.02339217,-0.10
 421734,-0.05455831,0.08388804,0.00716103,0.00848073,-0.01089118,0.0044
 0679,0.00242054,-0.00066506,0.00072907,0.00076421,-0.00029936,0.000013
 92,-0.00001093,0.00000626,0.00000377,0.00000056,-0.00001916,0.00000903
 ,0.00001700,0.00000345,0.00000036,-0.00001114,0.00000203,-0.00000150,0
 .00000913,0.00000240,-0.00000019,0.00000475,0.00000225,0.00000052,-0.0
 0000655,0.00000846,-0.00000194,0.00000323,-0.00000569,-0.00000169,0.00
 000057,-0.00001056,0.00011768,-0.00014769,0.00017907,0.00005301,-0.000
 86161,0.00111139,0.00118132,0.00004107,-0.00052625,0.00052789,0.000793
 59,0.00011215,0.10850386,-0.00000779,0.00042681,-0.00026485,0.00001704
 ,-0.00008447,0.00005578,0.00000526,-0.00006862,0.00006059,0.00000658,-
 0.00009856,0.00005959,-0.00050589,-0.00096022,0.00091169,-0.00136910,0
 .00086364,-0.00101459,0.00036275,-0.00037657,0.00026937,0.00159142,-0.
 00533226,0.00265290,-0.00018438,-0.00098529,-0.00008408,0.00001064,-0.
 00182244,0.00286481,-0.05451105,-0.11028979,0.09453585,-0.01480394,-0.
 01108614,0.01916950,0.01062953,0.00810625,-0.02481822,0.00067888,0.000
 73808,0.00062600,-0.00003446,-0.00001756,0.00002137,0.00000729,0.00001
 168,-0.00000949,0.00001016,0.00001257,-0.00001003,-0.00000375,-0.00004
 383,0.00000393,-0.00000525,0.00001569,-0.00000310,-0.00000450,0.000073
 24,-0.00000489,0.00000795,-0.00001285,0.00004630,-0.00002072,0.0000259
 3,-0.00006787,-0.00001172,0.00001091,-0.00000627,-0.00035311,-0.000072
 87,0.00021285,-0.00016461,-0.00015850,0.00009147,-0.00038852,-0.000101
 84,-0.00004522,-0.00045325,0.00028023,-0.00028434,0.05902581,0.1208825
 5,-0.00001602,-0.00019166,0.00006121,0.00000016,0.00001624,-0.00001546
 ,-0.00000280,0.00002053,-0.00000277,0.00000306,0.00002157,-0.00002632,
 0.00018160,0.00015454,-0.00012951,0.00003014,-0.00041401,0.00044665,-0
 .00002867,0.00016376,-0.00005113,-0.00128781,0.00071278,0.00083381,-0.
 00210435,-0.00095110,0.00031488,-0.00369908,-0.00349094,0.00595406,0.0
 8296449,0.09536679,-0.18836303,0.00470375,0.00290315,-0.00344559,0.012
 08338,-0.00135709,-0.03083883,0.00041436,0.00095956,0.00008822,0.00000
 701,0.00000691,-0.00000537,-0.00000972,-0.00000202,0.00000559,0.000001
 52,-0.00000116,0.00000716,0.00000415,0.00000990,-0.00000509,0.00000540
 ,-0.00000159,0.00000572,0.00000089,-0.00003445,-0.00000128,0.00000291,
 0.00001530,-0.00001196,0.00001391,-0.00002212,0.00002111,-0.00001047,-
 0.00000106,0.00001905,-0.00037726,-0.00022928,0.00025707,0.00001197,-0
 .00026692,0.00037269,0.00086596,0.00038215,0.00072760,0.00021060,0.000
 08586,-0.00010438,-0.09352000,-0.09452941,0.21318759,0.00004970,0.0003
 0628,-0.00013931,0.00000535,-0.00004271,0.00003071,-0.00000004,-0.0000
 3348,0.00004615,0.00000811,-0.00008440,0.00005135,-0.00035053,-0.00064
 102,0.00064998,-0.00374125,0.00455731,-0.00305880,0.00334286,0.0000903
 3,0.00032844,-0.02620282,-0.00484939,-0.00634719,-0.00082531,-0.003015
 55,-0.00171209,-0.00063414,0.00050536,0.00033013,-0.00705640,-0.000164
 68,-0.00555387,-0.20336741,-0.00556535,-0.12648747,0.00160871,-0.00163
 366,0.00113685,0.00036300,0.00180344,0.00038305,-0.00001495,-0.0000174
 3,0.00001719,0.00000055,0.00000685,-0.00001318,0.00002259,0.00002279,-
 0.00000096,-0.00000284,-0.00003775,0.00000166,0.00000169,0.00002430,0.
 00000543,0.00000734,0.00004572,-0.00001678,0.00002262,0.00000892,0.000
 04250,0.00000081,-0.00001188,-0.00004365,-0.00003183,0.00000846,0.0000
 1261,-0.00007457,0.00002674,0.00014386,-0.00118945,0.00071651,0.000029
 17,-0.00004683,-0.00008279,-0.00014006,-0.00021218,0.00000429,-0.00024
 016,-0.00012931,0.00075926,0.00003996,0.23083566,0.00001629,0.00011997
 ,0.00008524,-0.00000194,-0.00001018,0.00000448,-0.00003868,0.00005502,
 0.00000016,-0.00003965,-0.00004967,0.00005352,0.00028548,-0.00021548,0
 .00073503,-0.00602734,0.00458330,-0.00296679,0.00441981,-0.00037447,0.
 00039914,-0.01724801,-0.00453513,-0.00423584,-0.00036619,-0.00286757,-
 0.00033159,0.00214604,-0.00515940,0.00016839,0.02607711,0.00092249,0.0
 1816459,-0.00011877,-0.04610267,-0.00434864,-0.00155710,0.00425702,0.0
 0104201,-0.00084556,-0.00138312,-0.00078937,-0.00000343,-0.00000233,0.
 00000137,0.00000650,-0.00000241,-0.00000601,0.00000931,0.00000675,-0.0
 0000185,0.00002763,0.00000109,-0.00000771,0.00001841,0.00001260,0.0000
 0427,0.00002894,-0.00006872,-0.00002517,0.00001854,0.00000295,0.000024
 64,-0.00000769,-0.00001029,0.00002178,0.00000229,0.00000008,-0.0000077
 3,0.00014035,-0.00008089,0.00000823,-0.00060934,0.00047355,-0.00015975
 ,-0.00015564,0.00000641,0.00015866,0.00134355,0.00067114,0.00021033,-0
 .00053541,-0.00021563,-0.00021002,0.00648909,0.04942892,-0.00004049,-0
 .00008200,-0.00008333,-0.00000016,-0.00000440,0.00000113,0.00000695,-0
 .00004402,0.00000649,0.00000732,0.00003333,-0.00003354,0.00023708,-0.0
 0027709,-0.00053500,0.00136133,-0.00037140,0.00232364,-0.00040648,-0.0
 0013727,-0.00130797,0.01682771,0.00275153,0.01099291,0.00148580,0.0012
 1113,-0.00068293,0.00061577,0.00124734,-0.00020123,-0.00378473,-0.0028
 2376,-0.00538153,-0.13167110,-0.00600014,-0.15547416,0.00192844,-0.000
 58118,0.00118685,-0.00014530,0.00045954,0.00084085,-0.00000204,0.00000
 165,0.00000203,-0.00000026,0.00000327,0.00000289,-0.00000173,-0.000003
 41,-0.00000041,-0.00001402,-0.00000753,0.00000637,0.00000051,-0.000000
 74,-0.00000465,-0.00002380,0.00005928,0.00000032,-0.00001192,-0.000008
 08,-0.00001399,0.00000590,0.00001812,-0.00000715,0.00001171,-0.0000004
 7,-0.00000580,0.00003252,-0.00006799,0.00001899,0.00059136,-0.00030442
 ,0.00001506,0.00033202,0.00006148,0.00012548,-0.00025242,-0.00007815,0
 .00019320,-0.00009914,0.00044209,-0.00004289,0.13618196,0.00438238,0.1
 6704893,0.00004835,0.00041895,-0.00065576,0.00002475,-0.00008210,0.000
 06350,0.00001930,-0.00016549,0.00013719,0.00001238,-0.00008801,0.00004
 706,-0.00114380,-0.00135480,0.00073250,-0.00168461,0.00521946,-0.00178
 768,0.00176023,-0.00136904,0.00079547,-0.01576606,0.00188014,0.0270002
 1,0.00028640,-0.00065567,0.00229843,0.00042122,-0.00057220,0.00040495,
 -0.00288069,0.00444277,0.00910936,-0.06439471,0.03300007,0.04825132,0.
 00017533,0.00096318,0.00001131,0.00016296,0.00053406,0.00003813,-0.000
 03666,-0.00002166,0.00002899,0.00001188,0.00001558,-0.00001970,0.00001
 096,0.00001214,-0.00001061,-0.00001013,-0.00008332,-0.00001639,-0.0000
 3089,0.00001143,-0.00000456,-0.00000595,0.00012081,0.00001410,0.000001
 48,-0.00001766,0.00005261,-0.00002705,0.00003830,-0.00011746,-0.000022
 46,0.00001448,-0.00001167,-0.00096003,0.00046252,0.00009129,-0.0000729
 1,0.00003505,0.00008717,-0.00036114,0.00024702,-0.00047742,-0.00004827
 ,-0.00003333,-0.00026285,0.00058547,-0.00029056,-0.00048902,0.00761087
 ,-0.01347461,-0.02317282,0.07631376,-0.00006031,0.00015795,-0.00046319
 ,0.00001454,-0.00006252,0.00003927,-0.00000997,-0.00010859,0.00008838,
 -0.00000394,-0.00002030,-0.00000822,-0.00079483,-0.00121405,0.00029355
 ,-0.00241072,0.00356632,-0.00066488,0.00151329,-0.00004024,-0.00060185
 ,-0.01103333,0.00701947,0.02152861,0.00071518,-0.00121837,0.00124654,-
 0.00048879,0.00080699,0.00009093,0.00346937,-0.01168719,-0.02940368,0.
 03365091,-0.10526589,-0.10117872,0.00419789,-0.00730683,-0.00057092,0.
 00060768,0.00070226,0.00079619,-0.00002372,-0.00000882,0.00001955,0.00
 000760,0.00000914,-0.00001015,0.00000951,0.00000686,-0.00000274,0.0000
 0524,-0.00005170,-0.00001772,-0.00001381,0.00000766,0.00000004,-0.0000
 0559,0.00001812,0.00001705,0.00000899,-0.00000770,0.00001483,0.0000136
 4,0.00000567,-0.00000433,-0.00000530,0.00000409,-0.00001094,-0.0005050
 3,0.00028574,0.00003142,0.00004990,-0.00000704,0.00009946,0.00060821,0
 .00023020,0.00026059,-0.00005902,-0.00012880,0.00015538,-0.00105452,0.
 00027983,0.00088378,0.00080444,0.00053668,0.00012093,-0.02920749,0.113
 49109,-0.00003556,-0.00044806,0.00045553,-0.00001446,0.00007999,-0.000
 04579,0.00000869,0.00012899,-0.00009571,0.00000952,0.00008249,-0.00003
 625,0.00068332,0.00111663,-0.00087195,0.00273481,-0.00487463,0.0015183
 1,-0.00216613,0.00064978,0.00060919,0.01242304,0.00480172,-0.00929565,
 -0.00137345,0.00017712,-0.00193665,0.00027920,-0.00009496,-0.00046885,
 -0.00260342,0.00384271,0.00601491,0.04749431,-0.10118036,-0.23492549,-
 0.00090622,0.00158916,0.00171667,0.00012858,0.00051287,-0.00013624,0.0
 0003103,0.00002035,-0.00002505,-0.00002287,-0.00000825,0.00002560,-0.0
 0000490,-0.00001448,0.00001115,-0.00000533,0.00006224,0.00002105,0.000
 03291,-0.00000673,0.00000623,-0.00000377,-0.00007708,-0.00003118,-0.00
 000264,0.00002758,-0.00004663,0.00001659,-0.00005715,0.00006177,-0.000
 00524,-0.00000480,0.00003785,0.00056796,-0.00041536,0.00008520,0.00013
 878,-0.00002913,-0.00006371,-0.00009588,0.00016376,0.00035546,0.000150
 30,-0.00003975,0.00004594,0.00035595,-0.00088175,0.00074122,0.00432252
 ,-0.01237376,-0.01899056,-0.06213763,0.10725083,0.25526364\\0.00000182
 ,-0.00000096,0.00000136,0.00000117,0.00000020,0.00000215,0.00000063,0.
 00000010,0.00000021,0.00000257,0.00000022,-0.00000031,0.00000147,0.000
 00118,-0.00000049,-0.00000169,-0.00000063,0.00000030,0.00000059,-0.000
 00010,-0.00000169,-0.00000093,0.00000086,-0.00000087,-0.00000029,-0.00
 000020,0.00000087,-0.00000196,-0.00000007,0.00000021,-0.00000230,-0.00
 000019,-0.00000163,-0.00000153,-0.00000075,-0.00000151,-0.00000140,-0.
 00000002,-0.00000077,-0.00000004,0.00000023,-0.00000226,0.00000257,0.0
 0000014,0.00000229,0.00000230,0.00000006,0.00000230,0.00000102,-0.0000
 0004,0.00000277,0.00000124,0.00000012,0.00000051,-0.00000025,-0.000000
 06,0.00000105,0.00000025,0.00000008,-0.00000059,0.00000314,0.00000036,
 -0.00000013,0.00000212,0.00000030,-0.00000125,0.00000294,0.00000033,0.
 00000001,-0.00000042,-0.00000019,0.00000091,-0.00000146,-0.00000012,0.
 00000139,-0.00000318,-0.00000027,0.00000044,-0.00000213,-0.00000013,0.
 00000076,-0.00000273,-0.00000029,-0.00000169,-0.00000098,0.00000006,-0
 .00000246,-0.00000250,-0.00000022,-0.00000189\\\@
 The archive entry for this job was punched.


 THE LENGTH OF A MEETING IS PROPORTIONAL TO THE
 SQUARE OF THE PARTICIPANTS.
 Job cpu time:  0 days  0 hours 16 minutes 25.3 seconds.
 File lengths (MBytes):  RWF=    113 Int=      0 D2E=      0 Chk=      3 Scr=      1
 Normal termination of Gaussian DV at Wed Oct 19 23:01:05 2011.
