 Entering Gaussian System, Link 0=gdv
 Input=tdc.gjf
 Output=tdc.log
 Initial command:
 /home/foresman/gdv/l1.exe /tmp/Gau-25215.inp -scrdir=/tmp/
 Default is to use a total of   8 processors:
                                8 via shared-memory
                                1 via Linda
 Entering Link 1 = /home/foresman/gdv/l1.exe PID=     25216.
  
 Copyright (c) 1988,1990,1992,1993,1995,1998,2003,2009,2011,
            Gaussian, Inc.  All Rights Reserved.
  
 This is the private, development version of
 the Gaussian(R) DV system of programs. It is based on
 the Gaussian(R) 09 system (copyright 2009, Gaussian, Inc.),
 the Gaussian(R) 03 system (copyright 2003, Gaussian, Inc.),
 the Gaussian(R) 98 system (copyright 1998, Gaussian, Inc.),
 the Gaussian(R) 94 system (copyright 1995, Gaussian, Inc.),
 the Gaussian 92(TM) system (copyright 1992, Gaussian, Inc.),
 the Gaussian 90(TM) system (copyright 1990, Gaussian, Inc.),
 the Gaussian 88(TM) system (copyright 1988, Gaussian, Inc.),
 the Gaussian 86(TM) system (copyright 1986, Carnegie Mellon
 University), and the Gaussian 82(TM) system (copyright 1983,
 Carnegie Mellon University). Gaussian is a federally registered
 trademark of Gaussian, Inc.
  
 This software contains proprietary and confidential information,
 including trade secrets, belonging to Gaussian, Inc.
  
 This software is provided under written license and may be
 used, copied, transmitted, or stored only in accord with that
 written license.
  
 The following legend is applicable only to US Government
 contracts under FAR:
  
                    RESTRICTED RIGHTS LEGEND
  
 Use, reproduction and disclosure by the US Government is
 subject to restrictions as set forth in subparagraphs (a)
 and (c) of the Commercial Computer Software - Restricted
 Rights clause in FAR 52.227-19.
  
 Gaussian, Inc.
 340 Quinnipiac St., Bldg. 40, Wallingford CT 06492
  
  
 ---------------------------------------------------------------
 Warning -- This program may not be used in any manner that
 competes with the business of Gaussian, Inc. or will provide
 assistance to any competitor of Gaussian, Inc.  The licensee
 of this program is prohibited from giving any competitor of
 Gaussian, Inc. access to this program.  By using this program,
 the user acknowledges that Gaussian, Inc. is engaged in the
 business of creating and licensing software in the field of
 computational chemistry and represents and warrants to the
 licensee that it is not a competitor of Gaussian, Inc. and that
 it will not use this program in any manner prohibited above.
 ---------------------------------------------------------------
  

 Cite this work as:
 Gaussian Development Version, Revision H.13,
 M. J. Frisch, G. W. Trucks, H. B. Schlegel, G. E. Scuseria, 
 M. A. Robb, J. R. Cheeseman, G. Scalmani, V. Barone, B. Mennucci, 
 G. A. Petersson, H. Nakatsuji, M. Caricato, X. Li, H. P. Hratchian, 
 A. F. Izmaylov, J. Bloino, G. Zheng, J. L. Sonnenberg, W. Liang, 
 M. Hada, M. Ehara, K. Toyota, R. Fukuda, J. Hasegawa, M. Ishida, 
 T. Nakajima, Y. Honda, O. Kitao, H. Nakai, T. Vreven, 
 J. A. Montgomery, Jr., J. E. Peralta, F. Ogliaro, M. Bearpark, 
 J. J. Heyd, E. Brothers, K. N. Kudin, V. N. Staroverov, T. Keith, 
 R. Kobayashi, J. Normand, K. Raghavachari, A. Rendell, J. C. Burant, 
 S. S. Iyengar, J. Tomasi, M. Cossi, N. Rega, J. M. Millam, M. Klene, 
 J. E. Knox, J. B. Cross, V. Bakken, C. Adamo, J. Jaramillo, 
 R. Gomperts, R. E. Stratmann, O. Yazyev, A. J. Austin, R. Cammi, 
 C. Pomelli, J. W. Ochterski, R. L. Martin, K. Morokuma, 
 V. G. Zakrzewski, G. A. Voth, P. Salvador, J. J. Dannenberg, 
 S. Dapprich, P. V. Parandekar, N. J. Mayhall, A. D. Daniels, 
 O. Farkas, J. B. Foresman, J. V. Ortiz, J. Cioslowski, 
 and D. J. Fox, Gaussian, Inc., Wallingford CT, 2010.
 
 ******************************************
 Gaussian DV:  EM64L-GDVRevH.13 30-Sep-2011
                19-Oct-2011 
 ******************************************
 %chk=tdc
 %nprocshared=8
 Will use up to    8 processors via shared memory.
 Default route:  maxdisk=400GB
 ------------------------------------
 #p B3LYP/3-21G freq=vcd Geom=Connect
 ------------------------------------
 1/10=4,30=1,38=1,57=2/1,3;
 2/12=2,17=6,18=5,40=1/2;
 3/5=5,11=2,16=1,25=1,30=1,36=2,71=2,74=-5,140=1/1,2,3;
 4//1;
 5/5=2,38=5,98=1/2;
 8/6=4,10=90,11=11/1;
 10/15=4,46=1/2;
 11/6=1,8=1,9=11,15=111,16=1/1,2,10;
 10/6=1,46=1/2;
 6/7=2,8=2,9=2,10=2,18=1,28=1/1;
 7/8=1,10=1,25=1/1,2,3,16;
 1/10=4,30=1/3;
 99//99;
 Leave Link    1 at Wed Oct 19 23:01:05 2011, MaxMem=          0 cpu:       0.3
 (Enter /home/foresman/gdv/l101.exe)
 ----------------
 15 -21.327 0.000
 ----------------
 Charge =  0 Multiplicity = 1
 Symbolic Z-Matrix:
 C                    -0.30849  -2.13891   1.14935 
 C                    -1.76785  -2.24574   1.60804 
 C                     0.09613  -3.33025   0.26656 
 C                     0.64685  -1.95688   2.33944 
 O                    -0.32734  -0.88519   0.32492 
 C                     0.8521   -0.45749  -0.27072 
 O                     1.95523  -1.02083  -0.18903 
 N                     0.62181   0.68008  -0.97342 
 C                    -0.66298   1.41133  -1.03406 
 C                    -0.40935   2.37344  -2.21561 
 C                     1.07758   2.74737  -2.01385 
 C                     1.73314   1.41155  -1.62078 
 O                     1.22585   3.59347  -0.82715 
 H                     0.73693   4.44343  -1.00211 
 H                    -1.89891  -3.13532   2.23222 
 H                    -2.04067  -1.35658   2.18412 
 H                    -2.42597  -2.31585   0.73678 
 H                     0.04572  -4.25485   0.85118 
 H                    -0.58983  -3.41054  -0.58342 
 H                     1.11185  -3.17683  -0.10004 
 H                     0.61359  -2.84673   2.97682 
 H                     1.66016  -1.80377   1.96618 
 H                     0.34117  -1.08625   2.92914 
 H                    -0.82422   1.98042  -0.11294 
 H                    -1.48908   0.71971  -1.19512 
 H                    -0.53004   1.84332  -3.16599 
 H                    -1.06654   3.24788  -2.20153 
 H                     1.5389    3.18964  -2.9055 
 H                     2.55341   1.58745  -0.92203 
 H                     2.10277   0.86823  -2.49646 
 
 NAtoms=     30 NQM=        0 NQMF=       0 NMMI=     30 NMMIF=      0
                NMic=       0 NMicF=      0.
                    Isotopes and Nuclear Properties:
 (Nuclear quadrupole moments (NQMom) in fm**2, nuclear magnetic moments (NMagM)
  in nuclear magnetons)

  Atom         1           2           3           4           5           6           7           8           9          10
 IAtWgt=          12          12          12          12          16          12          16          14          12          12
 AtmWgt=  12.0000000  12.0000000  12.0000000  12.0000000  15.9949146  12.0000000  15.9949146  14.0030740  12.0000000  12.0000000
 NucSpn=           0           0           0           0           0           0           0           2           0           0
 AtZEff=   0.0000000   0.0000000   0.0000000   0.0000000   0.0000000   0.0000000   0.0000000   0.0000000   0.0000000   0.0000000
 NQMom=    0.0000000   0.0000000   0.0000000   0.0000000   0.0000000   0.0000000   0.0000000   2.0440000   0.0000000   0.0000000
 NMagM=    0.0000000   0.0000000   0.0000000   0.0000000   0.0000000   0.0000000   0.0000000   0.4037610   0.0000000   0.0000000
 AtZNuc=   6.0000000   6.0000000   6.0000000   6.0000000   8.0000000   6.0000000   8.0000000   7.0000000   6.0000000   6.0000000

  Atom        11          12          13          14          15          16          17          18          19          20
 IAtWgt=          12          12          16           1           1           1           1           1           1           1
 AtmWgt=  12.0000000  12.0000000  15.9949146   1.0078250   1.0078250   1.0078250   1.0078250   1.0078250   1.0078250   1.0078250
 NucSpn=           0           0           0           1           1           1           1           1           1           1
 AtZEff=   0.0000000   0.0000000   0.0000000   0.0000000   0.0000000   0.0000000   0.0000000   0.0000000   0.0000000   0.0000000
 NQMom=    0.0000000   0.0000000   0.0000000   0.0000000   0.0000000   0.0000000   0.0000000   0.0000000   0.0000000   0.0000000
 NMagM=    0.0000000   0.0000000   0.0000000   2.7928460   2.7928460   2.7928460   2.7928460   2.7928460   2.7928460   2.7928460
 AtZNuc=   6.0000000   6.0000000   8.0000000   1.0000000   1.0000000   1.0000000   1.0000000   1.0000000   1.0000000   1.0000000

  Atom        21          22          23          24          25          26          27          28          29          30
 IAtWgt=           1           1           1           1           1           1           1           1           1           1
 AtmWgt=   1.0078250   1.0078250   1.0078250   1.0078250   1.0078250   1.0078250   1.0078250   1.0078250   1.0078250   1.0078250
 NucSpn=           1           1           1           1           1           1           1           1           1           1
 AtZEff=   0.0000000   0.0000000   0.0000000   0.0000000   0.0000000   0.0000000   0.0000000   0.0000000   0.0000000   0.0000000
 NQMom=    0.0000000   0.0000000   0.0000000   0.0000000   0.0000000   0.0000000   0.0000000   0.0000000   0.0000000   0.0000000
 NMagM=    2.7928460   2.7928460   2.7928460   2.7928460   2.7928460   2.7928460   2.7928460   2.7928460   2.7928460   2.7928460
 AtZNuc=   1.0000000   1.0000000   1.0000000   1.0000000   1.0000000   1.0000000   1.0000000   1.0000000   1.0000000   1.0000000
 Leave Link  101 at Wed Oct 19 23:01:05 2011, MaxMem=  128000000 cpu:       0.9
 (Enter /home/foresman/gdv/l103.exe)

 GradGradGradGradGradGradGradGradGradGradGradGradGradGradGradGradGradGrad
 Berny optimization.
 Initialization pass.
 Trust Radius=3.00D-01 FncErr=1.00D-07 GrdErr=1.00D-07
 Number of steps in this run=      2 maximum allowed number of steps=      2.
 GradGradGradGradGradGradGradGradGradGradGradGradGradGradGradGradGradGrad

 Leave Link  103 at Wed Oct 19 23:01:05 2011, MaxMem=  128000000 cpu:       0.2
 (Enter /home/foresman/gdv/l202.exe)
                          Input orientation:                          
 ---------------------------------------------------------------------
 Center     Atomic      Atomic             Coordinates (Angstroms)
 Number     Number       Type             X           Y           Z
 ---------------------------------------------------------------------
      1          6           0       -0.308486   -2.138906    1.149347
      2          6           0       -1.767849   -2.245741    1.608041
      3          6           0        0.096127   -3.330247    0.266564
      4          6           0        0.646845   -1.956882    2.339443
      5          8           0       -0.327339   -0.885193    0.324922
      6          6           0        0.852101   -0.457491   -0.270718
      7          8           0        1.955231   -1.020833   -0.189034
      8          7           0        0.621807    0.680083   -0.973424
      9          6           0       -0.662978    1.411331   -1.034055
     10          6           0       -0.409348    2.373443   -2.215613
     11          6           0        1.077584    2.747367   -2.013850
     12          6           0        1.733139    1.411545   -1.620778
     13          8           0        1.225848    3.593467   -0.827150
     14          1           0        0.736926    4.443426   -1.002112
     15          1           0       -1.898906   -3.135318    2.232225
     16          1           0       -2.040674   -1.356577    2.184116
     17          1           0       -2.425968   -2.315848    0.736779
     18          1           0        0.045720   -4.254850    0.851183
     19          1           0       -0.589831   -3.410540   -0.583417
     20          1           0        1.111853   -3.176834   -0.100044
     21          1           0        0.613590   -2.846734    2.976824
     22          1           0        1.660159   -1.803772    1.966180
     23          1           0        0.341169   -1.086249    2.929140
     24          1           0       -0.824223    1.980424   -0.112937
     25          1           0       -1.489084    0.719707   -1.195118
     26          1           0       -0.530041    1.843324   -3.165989
     27          1           0       -1.066544    3.247879   -2.201533
     28          1           0        1.538902    3.189642   -2.905497
     29          1           0        2.553405    1.587447   -0.922029
     30          1           0        2.102766    0.868229   -2.496464
 ---------------------------------------------------------------------
                    Distance matrix (angstroms):
                    1          2          3          4          5
     1  C    0.000000
     2  C    1.533478   0.000000
     3  C    1.536982   2.539709   0.000000
     4  C    1.536918   2.539515   2.546811   0.000000
     5  O    1.500609   2.360627   2.482140   2.481098   0.000000
     6  C    2.488112   3.686694   3.018757   3.017158   1.388810
     7  O    2.857580   4.311752   2.999538   2.996875   2.343645
     8  N    3.649424   4.575463   4.230444   4.234300   2.244252
     9  C    4.182953   4.644953   4.974979   4.943783   2.689516
    10  C    5.629781   6.148392   6.240897   6.373053   4.132766
    11  C    5.983533   6.793064   6.565130   6.423913   4.543033
    12  C    4.944444   6.004826   5.359707   5.311279   3.647783
    13  O    6.254664   6.999195   7.100020   6.416302   4.878324
    14  H    7.003482   7.604719   7.902541   7.220669   5.593555
    15  H    2.166771   1.094590   2.807486   2.807321   3.342258
    16  H    2.164084   1.094033   3.484006   2.758125   2.571833
    17  H    2.164544   1.094135   2.758817   3.484188   2.573061
    18  H    2.166006   2.810406   1.095084   2.803020   3.430847
    19  H    2.167644   2.747176   1.095196   3.490788   2.696547
    20  H    2.157692   3.475223   1.090704   2.766878   2.739250
    21  H    2.165852   2.811763   2.801260   1.095078   3.430098
    22  H    2.157566   3.474887   2.768577   1.090675   2.736359
    23  H    2.167441   2.745484   3.490686   1.095072   2.696160
    24  H    4.339150   4.659686   5.403174   4.866271   2.941152
    25  H    3.880979   4.090146   4.588196   4.921326   2.497175
    26  H    5.876170   6.406558   6.240220   6.792379   4.435353
    27  H    6.389092   6.721945   7.121450   7.116580   4.900172
    28  H    6.946080   7.800642   7.392734   7.402153   5.524739
    29  H    5.134855   6.306174   5.624472   5.180197   3.995938
    30  H    5.305557   6.444023   5.411850   5.786791   4.115837
                    6          7          8          9         10
     6  C    0.000000
     7  O    1.241338   0.000000
     8  N    1.356800   2.299217   0.000000
     9  C    2.524014   3.672124   1.479551   0.000000
    10  C    3.658970   4.606448   2.339612   1.544690   0.000000
    11  C    3.655197   4.277797   2.358788   2.403028   1.546445
    12  C    2.468235   2.831197   1.479582   2.466905   2.422669
    13  O    4.106040   4.714971   2.978937   2.893474   2.467824
    14  H    4.956530   5.657163   3.765213   3.339813   2.659202
    15  H    4.582960   5.018756   5.584573   5.733073   7.235226
    16  H    3.899066   4.659595   4.605089   4.462733   5.994322
    17  H    3.900548   4.661447   4.603186   4.487299   5.896849
    18  H    4.040896   3.897069   5.292884   6.013483   7.317554
    19  H    3.301129   3.513343   4.284083   4.843436   6.012579
    20  H    2.737047   2.316797   3.984814   5.007361   6.131498
    21  H    4.038799   3.893144   5.295560   5.987311   7.433576
    22  H    2.732973   2.311928   3.986099   4.973456   6.262538
    23  H    3.300830   3.511764   4.292865   4.790943   6.245097
    24  H    2.962834   4.091295   2.126576   1.094680   2.178952
    25  H    2.778752   3.988106   2.122871   1.089374   2.223080
    26  H    3.947995   4.821020   2.736280   2.179319   1.094901
    27  H    4.597718   5.603854   3.309435   2.213318   1.093957
    28  H    4.551410   5.027981   3.297250   3.393075   2.222116
    29  H    2.738689   2.774567   2.134719   3.223149   3.327019
    30  H    2.876741   2.985725   2.132672   3.175364   2.941982
                   11         12         13         14         15
    11  C    0.000000
    12  C    1.539050   0.000000
    13  O    1.464966   2.376545   0.000000
    14  H    2.004066   3.250767   0.996036   0.000000
    15  H    7.841851   6.979351   8.024986   8.651353   0.000000
    16  H    6.647466   6.031698   6.651378   7.176848   1.785030
    17  H    6.743662   6.062153   7.120508   7.662599   1.784848
    18  H    7.635718   6.408276   8.112063   8.920340   2.634805
    19  H    6.538060   5.452047   7.239628   7.976238   3.117253
    20  H    6.225751   4.873587   6.810187   7.682621   3.808657
    21  H    7.511064   6.365868   7.504749   8.306237   2.636350
    22  H    6.073952   4.817661   6.092742   6.977865   3.809296
    23  H    6.298577   5.373854   6.065650   6.796225   3.114853
    24  H    2.796165   3.022797   2.704588   3.048638   5.729358
    25  H    3.371870   3.323033   3.970485   4.342632   5.174539
    26  H    2.174667   2.774184   3.408272   3.612215   7.470032
    27  H    2.209756   3.398179   2.695074   2.473954   7.816408
    28  H    1.097021   2.202239   2.140234   2.416198   8.844197
    29  H    2.171528   1.091801   2.407389   3.385650   7.216433
    30  H    2.194327   1.094825   3.313987   4.108605   7.375789
                   16         17         18         19         20
    16  H    0.000000
    17  H    1.778605   0.000000
    18  H    3.811789   3.143573   0.000000
    19  H    3.739378   2.512502   1.781814   0.000000
    20  H    4.297575   3.736006   1.789858   1.784375   0.000000
    21  H    3.145484   3.812945   2.612205   3.800186   3.134382
    22  H    3.734119   4.297683   3.139652   3.760932   2.540713
    23  H    2.510242   3.738370   3.800688   4.313601   3.760380
    24  H    4.229868   4.663214   6.369063   5.416529   5.508708
    25  H    4.004302   3.718141   5.593674   4.271040   4.811143
    26  H    6.414437   6.010395   7.325086   5.854600   6.107194
    27  H    6.433029   6.437140   8.176010   6.868777   7.102014
    28  H    7.706208   7.700441   8.471286   7.313410   6.970291
    29  H    6.278613   6.540758   6.600394   5.913922   5.045008
    30  H    6.635185   6.411056   6.456323   5.405339   4.804922
                   21         22         23         24         25
    21  H    0.000000
    22  H    1.790105   0.000000
    23  H    1.782076   1.783778   0.000000
    24  H    5.908924   4.981468   4.474020   0.000000
    25  H    5.877571   5.126352   4.860125   1.789571   0.000000
    26  H    7.812726   6.666142   6.818505   3.070255   2.463049
    27  H    8.172058   7.093935   6.862225   2.455075   2.753736
    28  H    8.479135   6.977258   7.332175   3.852915   4.265522
    29  H    6.214974   4.543128   5.184028   3.495344   4.143582
    30  H    6.780522   5.220219   6.029957   3.935154   3.823211
                   26         27         28         29         30
    26  H    0.000000
    27  H    1.786277   0.000000
    28  H    2.482128   2.699502   0.000000
    29  H    3.822103   4.183085   2.744155   0.000000
    30  H    2.886303   3.974197   2.423676   1.788629   0.000000
 Stoichiometry    C9H17NO3
 Framework group  C1[X(C9H17NO3)]
 Deg. of freedom    84
 Full point group                 C1      NOp   1
 Largest Abelian subgroup         C1      NOp   1
 Largest concise Abelian subgroup C1      NOp   1
                         Standard orientation:                         
 ---------------------------------------------------------------------
 Center     Atomic      Atomic             Coordinates (Angstroms)
 Number     Number       Type             X           Y           Z
 ---------------------------------------------------------------------
      1          6           0       -2.614285    0.218330    0.106433
      2          6           0       -3.181224    1.635127    0.257504
      3          6           0       -3.128957   -0.464155   -1.170923
      4          6           0       -2.879131   -0.633556    1.357938
      5          8           0       -1.141958    0.479002   -0.020572
      6          6           0       -0.281777   -0.600086   -0.176949
      7          8           0       -0.613690   -1.795341   -0.222976
      8          7           0        0.995303   -0.153968   -0.281590
      9          6           0        1.429110    1.255527   -0.162395
     10          6           0        2.874487    1.175036   -0.701352
     11          6           0        3.350021   -0.188225   -0.147385
     12          6           0        2.128627   -1.102792   -0.348481
     13          8           0        3.515507   -0.109306    1.306063
     14          1           0        4.243442    0.545275    1.489703
     15          1           0       -4.269961    1.592457    0.362191
     16          1           0       -2.751441    2.113195    1.142743
     17          1           0       -2.926309    2.232148   -0.623244
     18          1           0       -4.214342   -0.594450   -1.106327
     19          1           0       -2.897970    0.158566   -2.041737
     20          1           0       -2.643594   -1.434818   -1.279886
     21          1           0       -3.957795   -0.771266    1.487229
     22          1           0       -2.391173   -1.602159    1.242713
     23          1           0       -2.477502   -0.126964    2.241817
     24          1           0        1.435268    1.567501    0.886871
     25          1           0        0.775670    1.906759   -0.741747
     26          1           0        2.867589    1.145585   -1.795834
     27          1           0        3.501632    2.005620   -0.364362
     28          1           0        4.244716   -0.573626   -0.651809
     29          1           0        2.076602   -1.841142    0.454116
     30          1           0        2.157948   -1.610974   -1.317776
 ---------------------------------------------------------------------
 Rotational constants (GHZ):      1.7395064      0.4072916      0.3819480
 Leave Link  202 at Wed Oct 19 23:01:05 2011, MaxMem=  128000000 cpu:       0.0
 (Enter /home/foresman/gdv/l301.exe)
 Standard basis: 3-21G (6D, 7F)
 Ernie: Thresh=  0.10000D-02 Tol=  0.10000D-05 Strict=F.
 There are   151 symmetry adapted cartesian basis functions of A   symmetry.
 There are   151 symmetry adapted basis functions of A   symmetry.
   151 basis functions,   246 primitive gaussians,   151 cartesian basis functions
    51 alpha electrons       51 beta electrons
       nuclear repulsion energy       879.6173015512 Hartrees.
 IExCor=  402 DFT=T Ex+Corr=B3LYP ExCW=0 ScaHFX=  0.200000
 ScaDFX=  0.800000  0.720000  1.000000  0.810000 ScalE2=  1.000000  1.000000
 IRadAn=      0 IRanWt=     -1 IRanGd=            0 ICorTp=0 IEmpDi=  4
 NAtoms=   30 NActive=   30 NUniq=   30 SFac= 1.00D+00 NAtFMM=   60 NAOKFM=F Big=F
 Integral buffers will be    131072 words long.
 Raffenetti 2 integral format.
 Two-electron integral symmetry is turned on.
 Leave Link  301 at Wed Oct 19 23:01:05 2011, MaxMem=  128000000 cpu:       0.5
 (Enter /home/foresman/gdv/l302.exe)
 NPDir=0 NMtPBC=     1 NCelOv=     1 NCel=       1 NClECP=     1 NCelD=      1
         NCelK=      1 NCelE2=     1 NClLst=     1 CellRange=     0.0.
 One-electron integrals computed using PRISM.
 NBasis=   151 RedAO= T EigKep=  9.17D-03  NBF=   151
 NBsUse=   151 1.00D-06 EigRej= -1.00D+00 NBFU=   151
 Precomputing XC quadrature grid using
 IXCGrd= 2 IRadAn=           0 IRanWt=          -1 IRanGd=           0 AccXCQ= 0.00D+00.
 NRdTot=    1900 NPtTot=      240388 NUsed=      254091 NTot=      254123
 NSgBfM=   148   148   148   148   149 NAtAll=    30    30.
 Leave Link  302 at Wed Oct 19 23:01:06 2011, MaxMem=  128000000 cpu:       2.2
 (Enter /home/foresman/gdv/l303.exe)
 DipDrv:  MaxL=2.
 Leave Link  303 at Wed Oct 19 23:01:06 2011, MaxMem=  128000000 cpu:       0.4
 (Enter /home/foresman/gdv/l401.exe)
 ExpMin= 1.83D-01 ExpMax= 3.22D+02 ExpMxC= 3.22D+02 IAcc=1 IRadAn=         1 AccDes= 0.00D+00
 Harris functional with IExCor=  402 and IRadAn=       1 diagonalized for initial guess.
 HarFok:  IExCor=  402 AccDes= 0.00D+00 IRadAn=         1 IDoV= 1 UseB2=F ITyADJ=14
 ICtDFT=  3500011 ScaDFX=  1.000000  1.000000  1.000000  1.000000
 FoFCou: FMM=F IPFlag=           0 FMFlag=      100000 FMFlg1=           0
         NFxFlg=           0 DoJE=T BraDBF=F KetDBF=T FulRan=T
         wScrn=  0.000000 ICntrl=     500 IOpCl=  0 I1Cent=   200000004 NGrid=           0
         NMat0=    1 NMatS0=      1 NMatT0=    0 NMatD0=    1 NMtDS0=    0 NMtDT0=    0
 Petite list used in FoFCou.
 Harris En= -630.190147414023    
 Initial guess orbital symmetries:
       Occupied  (A) (A) (A) (A) (A) (A) (A) (A) (A) (A) (A) (A)
                 (A) (A) (A) (A) (A) (A) (A) (A) (A) (A) (A) (A)
                 (A) (A) (A) (A) (A) (A) (A) (A) (A) (A) (A) (A)
                 (A) (A) (A) (A) (A) (A) (A) (A) (A) (A) (A) (A)
                 (A) (A) (A)
       Virtual   (A) (A) (A) (A) (A) (A) (A) (A) (A) (A) (A) (A)
                 (A) (A) (A) (A) (A) (A) (A) (A) (A) (A) (A) (A)
                 (A) (A) (A) (A) (A) (A) (A) (A) (A) (A) (A) (A)
                 (A) (A) (A) (A) (A) (A) (A) (A) (A) (A) (A) (A)
                 (A) (A) (A) (A) (A) (A) (A) (A) (A) (A) (A) (A)
                 (A) (A) (A) (A) (A) (A) (A) (A) (A) (A) (A) (A)
                 (A) (A) (A) (A) (A) (A) (A) (A) (A) (A) (A) (A)
                 (A) (A) (A) (A) (A) (A) (A) (A) (A) (A) (A) (A)
                 (A) (A) (A) (A)
 The electronic state of the initial guess is 1-A.
 Leave Link  401 at Wed Oct 19 23:01:06 2011, MaxMem=  128000000 cpu:       2.9
 (Enter /home/foresman/gdv/l502.exe)
 Closed shell SCF:
 Using DIIS extrapolation, IDIIS=  1040.
 Integral symmetry usage will be decided dynamically.
       253808 words used for storage of precomputed grid.
 Keep R1 ints in memory in canonical form, NReq=67953609.
 IVT=      342755 IEndB=      342755 NGot=   128000000 MDV=    61802220
 LenX=    61802220 LenY=    61778978
 Requested convergence on RMS density matrix=1.00D-08 within 128 cycles.
 Requested convergence on MAX density matrix=1.00D-06.
 Requested convergence on             energy=1.00D-06.
 No special actions if energy rises.
 FoFCou: FMM=F IPFlag=           0 FMFlag=           0 FMFlg1=           0
         NFxFlg=           0 DoJE=F BraDBF=F KetDBF=F FulRan=T
         wScrn=  0.000000 ICntrl=     600 IOpCl=  0 I1Cent=           0 NGrid=           0
         NMat0=    1 NMatS0=  11476 NMatT0=    0 NMatD0=    1 NMtDS0=    0 NMtDT0=    0
 Symmetry not used in FoFCou.
 Integral accuracy reduced to 1.0D-05 until final iterations.

 Cycle   1  Pass 0  IDiag  1:
 E= -629.847458160643    
 DIIS: error= 4.59D-02 at cycle   1 NSaved=   1.
 NSaved= 1 IEnMin= 1 EnMin= -629.847458160643     IErMin= 1 ErrMin= 4.59D-02
 ErrMax= 4.59D-02  0.00D+00 EMaxC= 1.00D-01 BMatC= 3.66D-01 BMatP= 3.66D-01
 IDIUse=3 WtCom= 5.41D-01 WtEn= 4.59D-01
 Coeff-Com:  0.100D+01
 Coeff-En:   0.100D+01
 Coeff:      0.100D+01
 Gap=     0.268 Goal=   None    Shift=    0.000
 GapD=    0.268 DampG=1.000 DampE=0.500 DampFc=0.5000 IDamp=-1.
 Damping current iteration by 5.00D-01
 RMSDP=9.01D-03 MaxDP=1.55D-01              OVMax= 3.11D-01

 Cycle   2  Pass 0  IDiag  1:
 E= -629.950675432734     Delta-E=       -0.103217272092 Rises=F Damp=T
 DIIS: error= 3.18D-02 at cycle   2 NSaved=   2.
 NSaved= 2 IEnMin= 2 EnMin= -629.950675432734     IErMin= 2 ErrMin= 3.18D-02
 ErrMax= 3.18D-02  0.00D+00 EMaxC= 1.00D-01 BMatC= 4.92D-02 BMatP= 3.66D-01
 IDIUse=3 WtCom= 6.82D-01 WtEn= 3.18D-01
 Coeff-Com:  0.198D+00 0.802D+00
 Coeff-En:   0.305D+00 0.695D+00
 Coeff:      0.232D+00 0.768D+00
 Gap=     0.329 Goal=   None    Shift=    0.000
 RMSDP=2.72D-03 MaxDP=5.79D-02 DE=-1.03D-01 OVMax= 2.01D-01

 Cycle   3  Pass 0  IDiag  1:
 E= -630.128826333100     Delta-E=       -0.178150900365 Rises=F Damp=F
 DIIS: error= 3.90D-02 at cycle   3 NSaved=   3.
 NSaved= 3 IEnMin= 3 EnMin= -630.128826333100     IErMin= 2 ErrMin= 3.18D-02
 ErrMax= 3.90D-02  0.00D+00 EMaxC= 1.00D-01 BMatC= 5.87D-02 BMatP= 4.92D-02
 IDIUse=2 WtCom= 0.00D+00 WtEn= 1.00D+00
 Coeff-En:   0.000D+00 0.000D+00 0.100D+01
 Coeff:      0.000D+00 0.000D+00 0.100D+01
 Gap=     0.329 Goal=   None    Shift=    0.000
 RMSDP=5.12D-03 MaxDP=1.24D-01 DE=-1.78D-01 OVMax= 2.99D-01

 Cycle   4  Pass 0  IDiag  1:
 E= -629.899781407804     Delta-E=        0.229044925296 Rises=F Damp=F
 DIIS: error= 1.07D-01 at cycle   4 NSaved=   4.
 NSaved= 4 IEnMin= 3 EnMin= -630.128826333100     IErMin= 2 ErrMin= 3.18D-02
 ErrMax= 1.07D-01  0.00D+00 EMaxC= 1.00D-01 BMatC= 3.54D-01 BMatP= 4.92D-02
 IDIUse=2 WtCom= 0.00D+00 WtEn= 1.00D+00
 Coeff-En:   0.000D+00 0.000D+00 0.797D+00 0.203D+00
 Coeff:      0.000D+00 0.000D+00 0.797D+00 0.203D+00
 Gap=     0.289 Goal=   None    Shift=    0.000
 RMSDP=2.77D-03 MaxDP=7.00D-02 DE= 2.29D-01 OVMax= 1.43D-01

 Cycle   5  Pass 0  IDiag  1:
 E= -630.158982398343     Delta-E=       -0.259200990539 Rises=F Damp=F
 DIIS: error= 2.60D-02 at cycle   5 NSaved=   5.
 NSaved= 5 IEnMin= 5 EnMin= -630.158982398343     IErMin= 5 ErrMin= 2.60D-02
 ErrMax= 2.60D-02  0.00D+00 EMaxC= 1.00D-01 BMatC= 2.35D-02 BMatP= 4.92D-02
 IDIUse=3 WtCom= 7.40D-01 WtEn= 2.60D-01
 Coeff-Com: -0.984D-02 0.487D-01 0.320D+00-0.674D-01 0.708D+00
 Coeff-En:   0.000D+00 0.000D+00 0.324D+00 0.000D+00 0.676D+00
 Coeff:     -0.728D-02 0.360D-01 0.321D+00-0.499D-01 0.700D+00
 Gap=     0.303 Goal=   None    Shift=    0.000
 RMSDP=1.03D-03 MaxDP=2.46D-02 DE=-2.59D-01 OVMax= 4.11D-02

 Cycle   6  Pass 0  IDiag  1:
 E= -630.178009796519     Delta-E=       -0.019027398176 Rises=F Damp=F
 DIIS: error= 2.48D-03 at cycle   6 NSaved=   6.
 NSaved= 6 IEnMin= 6 EnMin= -630.178009796519     IErMin= 6 ErrMin= 2.48D-03
 ErrMax= 2.48D-03  0.00D+00 EMaxC= 1.00D-01 BMatC= 2.47D-04 BMatP= 2.35D-02
 IDIUse=3 WtCom= 9.75D-01 WtEn= 2.48D-02
 Coeff-Com: -0.866D-02 0.215D-01 0.133D+00-0.433D-01 0.392D+00 0.506D+00
 Coeff-En:   0.000D+00 0.000D+00 0.000D+00 0.000D+00 0.000D+00 0.100D+01
 Coeff:     -0.844D-02 0.210D-01 0.129D+00-0.423D-01 0.382D+00 0.518D+00
 Gap=     0.286 Goal=   None    Shift=    0.000
 RMSDP=1.09D-04 MaxDP=3.07D-03 DE=-1.90D-02 OVMax= 5.64D-03

 Cycle   7  Pass 0  IDiag  1:
 E= -630.178201857243     Delta-E=       -0.000192060724 Rises=F Damp=F
 DIIS: error= 4.46D-04 at cycle   7 NSaved=   7.
 NSaved= 7 IEnMin= 7 EnMin= -630.178201857243     IErMin= 7 ErrMin= 4.46D-04
 ErrMax= 4.46D-04  0.00D+00 EMaxC= 1.00D-01 BMatC= 9.22D-06 BMatP= 2.47D-04
 IDIUse=3 WtCom= 9.96D-01 WtEn= 4.46D-03
 Coeff-Com: -0.325D-02 0.790D-02 0.377D-01-0.179D-01 0.134D+00 0.265D+00
 Coeff-Com:  0.576D+00
 Coeff-En:   0.000D+00 0.000D+00 0.000D+00 0.000D+00 0.000D+00 0.000D+00
 Coeff-En:   0.100D+01
 Coeff:     -0.323D-02 0.787D-02 0.376D-01-0.178D-01 0.133D+00 0.264D+00
 Coeff:      0.578D+00
 Gap=     0.286 Goal=   None    Shift=    0.000
 RMSDP=1.83D-05 MaxDP=4.36D-04 DE=-1.92D-04 OVMax= 6.47D-04

 Cycle   8  Pass 0  IDiag  1:
 E= -630.178208907977     Delta-E=       -0.000007050734 Rises=F Damp=F
 DIIS: error= 5.38D-05 at cycle   8 NSaved=   8.
 NSaved= 8 IEnMin= 8 EnMin= -630.178208907977     IErMin= 8 ErrMin= 5.38D-05
 ErrMax= 5.38D-05  0.00D+00 EMaxC= 1.00D-01 BMatC= 4.60D-07 BMatP= 9.22D-06
 IDIUse=1 WtCom= 1.00D+00 WtEn= 0.00D+00
 Coeff-Com: -0.220D-03-0.872D-04 0.252D-02-0.156D-02 0.125D-01 0.779D-01
 Coeff-Com:  0.259D+00 0.650D+00
 Coeff:     -0.220D-03-0.872D-04 0.252D-02-0.156D-02 0.125D-01 0.779D-01
 Coeff:      0.259D+00 0.650D+00
 Gap=     0.286 Goal=   None    Shift=    0.000
 RMSDP=5.54D-06 MaxDP=1.19D-04 DE=-7.05D-06 OVMax= 1.89D-04

 Initial convergence to 1.0D-05 achieved.  Increase integral accuracy.
 Cycle   9  Pass 1  IDiag  1:
 E= -630.178325248240     Delta-E=       -0.000116340263 Rises=F Damp=F
 DIIS: error= 2.56D-05 at cycle   1 NSaved=   1.
 NSaved= 1 IEnMin= 1 EnMin= -630.178325248240     IErMin= 1 ErrMin= 2.56D-05
 ErrMax= 2.56D-05  0.00D+00 EMaxC= 1.00D-01 BMatC= 9.74D-08 BMatP= 9.74D-08
 IDIUse=1 WtCom= 1.00D+00 WtEn= 0.00D+00
 Coeff-Com:  0.100D+01
 Coeff:      0.100D+01
 Gap=     0.286 Goal=   None    Shift=    0.000
 RMSDP=5.54D-06 MaxDP=1.19D-04 DE=-1.16D-04 OVMax= 8.18D-05

 Cycle  10  Pass 1  IDiag  1:
 E= -630.178325348458     Delta-E=       -0.000000100217 Rises=F Damp=F
 DIIS: error= 2.58D-05 at cycle   2 NSaved=   2.
 NSaved= 2 IEnMin= 2 EnMin= -630.178325348458     IErMin= 1 ErrMin= 2.56D-05
 ErrMax= 2.58D-05  0.00D+00 EMaxC= 1.00D-01 BMatC= 3.82D-08 BMatP= 9.74D-08
 IDIUse=1 WtCom= 1.00D+00 WtEn= 0.00D+00
 Coeff-Com:  0.333D+00 0.667D+00
 Coeff:      0.333D+00 0.667D+00
 Gap=     0.286 Goal=   None    Shift=    0.000
 RMSDP=2.13D-06 MaxDP=6.07D-05 DE=-1.00D-07 OVMax= 9.07D-05

 Cycle  11  Pass 1  IDiag  1:
 E= -630.178325357350     Delta-E=       -0.000000008893 Rises=F Damp=F
 DIIS: error= 2.29D-05 at cycle   3 NSaved=   3.
 NSaved= 3 IEnMin= 3 EnMin= -630.178325357350     IErMin= 3 ErrMin= 2.29D-05
 ErrMax= 2.29D-05  0.00D+00 EMaxC= 1.00D-01 BMatC= 2.69D-08 BMatP= 3.82D-08
 IDIUse=1 WtCom= 1.00D+00 WtEn= 0.00D+00
 Coeff-Com: -0.227D-01 0.459D+00 0.564D+00
 Coeff:     -0.227D-01 0.459D+00 0.564D+00
 Gap=     0.286 Goal=   None    Shift=    0.000
 RMSDP=1.02D-06 MaxDP=3.75D-05 DE=-8.89D-09 OVMax= 4.55D-05

 Cycle  12  Pass 1  IDiag  1:
 E= -630.178325377286     Delta-E=       -0.000000019936 Rises=F Damp=F
 DIIS: error= 1.85D-06 at cycle   4 NSaved=   4.
 NSaved= 4 IEnMin= 4 EnMin= -630.178325377286     IErMin= 4 ErrMin= 1.85D-06
 ErrMax= 1.85D-06  0.00D+00 EMaxC= 1.00D-01 BMatC= 3.04D-10 BMatP= 2.69D-08
 IDIUse=1 WtCom= 1.00D+00 WtEn= 0.00D+00
 Coeff-Com: -0.154D-01 0.215D+00 0.280D+00 0.521D+00
 Coeff:     -0.154D-01 0.215D+00 0.280D+00 0.521D+00
 Gap=     0.286 Goal=   None    Shift=    0.000
 RMSDP=1.46D-07 MaxDP=4.80D-06 DE=-1.99D-08 OVMax= 3.56D-06

 Cycle  13  Pass 1  IDiag  1:
 E= -630.178325377555     Delta-E=       -0.000000000269 Rises=F Damp=F
 DIIS: error= 6.75D-07 at cycle   5 NSaved=   5.
 NSaved= 5 IEnMin= 5 EnMin= -630.178325377555     IErMin= 5 ErrMin= 6.75D-07
 ErrMax= 6.75D-07  0.00D+00 EMaxC= 1.00D-01 BMatC= 2.53D-11 BMatP= 3.04D-10
 IDIUse=1 WtCom= 1.00D+00 WtEn= 0.00D+00
 Coeff-Com: -0.612D-02 0.712D-01 0.971D-01 0.269D+00 0.569D+00
 Coeff:     -0.612D-02 0.712D-01 0.971D-01 0.269D+00 0.569D+00
 Gap=     0.286 Goal=   None    Shift=    0.000
 RMSDP=4.62D-08 MaxDP=1.07D-06 DE=-2.69D-10 OVMax= 1.90D-06

 Cycle  14  Pass 1  IDiag  1:
 E= -630.178325377571     Delta-E=       -0.000000000016 Rises=F Damp=F
 DIIS: error= 5.30D-07 at cycle   6 NSaved=   6.
 NSaved= 6 IEnMin= 6 EnMin= -630.178325377571     IErMin= 6 ErrMin= 5.30D-07
 ErrMax= 5.30D-07  0.00D+00 EMaxC= 1.00D-01 BMatC= 8.43D-12 BMatP= 2.53D-11
 IDIUse=1 WtCom= 1.00D+00 WtEn= 0.00D+00
 Coeff-Com: -0.231D-02 0.225D-01 0.326D-01 0.119D+00 0.398D+00 0.430D+00
 Coeff:     -0.231D-02 0.225D-01 0.326D-01 0.119D+00 0.398D+00 0.430D+00
 Gap=     0.286 Goal=   None    Shift=    0.000
 RMSDP=2.02D-08 MaxDP=4.81D-07 DE=-1.59D-11 OVMax= 8.35D-07

 Cycle  15  Pass 1  IDiag  1:
 E= -630.178325377552     Delta-E=        0.000000000019 Rises=F Damp=F
 DIIS: error= 6.23D-08 at cycle   7 NSaved=   7.
 NSaved= 7 IEnMin= 6 EnMin= -630.178325377571     IErMin= 7 ErrMin= 6.23D-08
 ErrMax= 6.23D-08  0.00D+00 EMaxC= 1.00D-01 BMatC= 3.04D-13 BMatP= 8.43D-12
 IDIUse=1 WtCom= 1.00D+00 WtEn= 0.00D+00
 Coeff-Com: -0.347D-03 0.142D-02 0.308D-02 0.228D-01 0.124D+00 0.204D+00
 Coeff-Com:  0.645D+00
 Coeff:     -0.347D-03 0.142D-02 0.308D-02 0.228D-01 0.124D+00 0.204D+00
 Coeff:      0.645D+00
 Gap=     0.286 Goal=   None    Shift=    0.000
 RMSDP=5.13D-09 MaxDP=1.23D-07 DE= 1.86D-11 OVMax= 1.39D-07

 SCF Done:  E(RB3LYP) =  -630.178325378     A.U. after   15 cycles
            NFock= 15  Conv=0.51D-08     -V/T= 2.0085
 KE= 6.248576783196D+02 PE=-3.229102771028D+03 EE= 1.094449465780D+03
 Leave Link  502 at Wed Oct 19 23:01:18 2011, MaxMem=  128000000 cpu:      96.6
 (Enter /home/foresman/gdv/l801.exe)
 DoSCS=F DFT=T ScalE2(SS,OS)=  1.000000  1.000000
 Range of M.O.s used for correlation:     1   151
 NBasis=   151 NAE=    51 NBE=    51 NFC=     0 NFV=     0
 NROrb=    151 NOA=    51 NOB=    51 NVA=   100 NVB=   100
 Leave Link  801 at Wed Oct 19 23:01:18 2011, MaxMem=  128000000 cpu:       0.3
 (Enter /home/foresman/gdv/l1002.exe)
 Minotr:  Closed shell wavefunction.
          Direct CPHF calculation.
          Differentiating once with respect to magnetic field using GIAOs.
          Electric field/nuclear overlap derivatives assumed to be zero.
          Requested convergence is 1.0D-08 RMS, and 1.0D-07 maximum.
          Secondary convergence is 1.0D-12 RMS, and 1.0D-12 maximum.
          NewPWx=T KeepS1=F KeepF1=F KeepIn=T MapXYZ=F SortEE=F KeepMc=T.
          MDV=     127999605 using IRadAn=       2.
 Generate precomputed XC quadrature information.
 Keep R3 ints in memory in canonical form, NReq=67618787.
 FoFCou: FMM=F IPFlag=           0 FMFlag=           0 FMFlg1=           0
         NFxFlg=           0 DoJE=F BraDBF=F KetDBF=F FulRan=T
         wScrn=  0.000000 ICntrl=     600 IOpCl=  0 I1Cent=           0 NGrid=           0
         NMat0=    1 NMatS0=  11476 NMatT0=    0 NMatD0=    1 NMtDS0=    0 NMtDT0=    0
 Symmetry not used in FoFCou.
          Solving linear equations simultaneously, MaxMat=       0.
 FoFJK:  IHMeth= 1 ICntrl=    6127 DoSepK=F KAlg= 0 I1Cent=   0 FoldK=F
 IRaf=       1 NMat=   1 IRICut=       1 DoRegI=T DoRafI=F ISym2E= 0.
          There are     3 degrees of freedom in the 1st order CPHF.  IDoFFX=0 NUNeed=     3.
      3 vectors produced by pass  0 Test12= 1.70D-13 3.33D-08 XBig12= 2.71D+01 7.20D-01.
 AX will form     3 AO Fock derivatives at one time.
      3 vectors produced by pass  1 Test12= 1.70D-13 3.33D-08 XBig12= 3.42D-02 9.02D-02.
      3 vectors produced by pass  2 Test12= 1.70D-13 3.33D-08 XBig12= 2.22D-04 7.33D-03.
      3 vectors produced by pass  3 Test12= 1.70D-13 3.33D-08 XBig12= 4.91D-07 2.80D-04.
      3 vectors produced by pass  4 Test12= 1.70D-13 3.33D-08 XBig12= 1.60D-09 1.57D-05.
      3 vectors produced by pass  5 Test12= 1.70D-13 3.33D-08 XBig12= 3.71D-12 6.15D-07.
 InvSVY:  IOpt=1 It=  1 EMax= 8.88D-16
 Solved reduced A of dimension    18 with     3 vectors.
 Calculating GIAO nuclear magnetic shielding tensors.
 SCF GIAO Magnetic shielding tensor (ppm):
      1  C    Isotropic =   124.4923   Anisotropy =    68.4663
   XX=   169.2426   YX=     5.4187   ZX=    -6.0050
   XY=     4.8353   YY=   100.0895   ZY=    -0.6994
   XZ=    -5.5745   YZ=    -0.9384   ZZ=   104.1447
   Eigenvalues:    99.6731   103.6672   170.1365
      2  C    Isotropic =   173.7643   Anisotropy =    40.9919
   XX=   165.6077   YX=   -14.3199   ZX=    -1.6628
   XY=   -11.8205   YY=   195.8389   ZY=     3.5908
   XZ=    -1.2002   YZ=     3.8593   ZZ=   159.8462
   Eigenvalues:   159.4588   160.7418   201.0922
      3  C    Isotropic =   178.5872   Anisotropy =    35.4784
   XX=   171.4332   YX=     8.4775   ZX=     8.4630
   XY=     8.3723   YY=   168.7289   ZY=    11.5841
   XZ=     4.6406   YZ=    10.4233   ZZ=   195.5996
   Eigenvalues:   160.9038   172.6185   202.2395
      4  C    Isotropic =   178.7316   Anisotropy =    35.2235
   XX=   170.2342   YX=     6.7123   ZX=    -2.7113
   XY=     5.9123   YY=   172.4015   ZY=   -16.1615
   XZ=     1.4073   YZ=   -15.0045   ZZ=   193.5591
   Eigenvalues:   161.0238   172.9571   202.2139
      5  O    Isotropic =   159.6141   Anisotropy =    83.8103
   XX=   135.0276   YX=   -13.0424   ZX=     5.0408
   XY=  -137.9314   YY=   143.0524   ZY=     8.5161
   XZ=     6.3219   YZ=    -7.4727   ZZ=   200.7624
   Eigenvalues:    63.3004   200.0543   215.4877
      6  C    Isotropic =    62.0074   Anisotropy =    61.9768
   XX=     6.1798   YX=    30.8094   ZX=    10.2473
   XY=    49.4639   YY=    86.7298   ZY=    -5.3087
   XZ=    13.8118   YZ=    -3.9709   ZZ=    93.1124
   Eigenvalues:   -11.9857    94.6826   103.3252
      7  O    Isotropic =    41.9673   Anisotropy =   381.0197
   XX=   -59.4330   YX=    -8.0557   ZX=    35.5483
   XY=    -3.6693   YY=  -104.9663   ZY=   -28.0036
   XZ=    40.0998   YZ=   -22.2456   ZZ=   290.3011
   Eigenvalues:  -106.8307   -63.2479   295.9804
      8  N    Isotropic =   176.9201   Anisotropy =   133.4868
   XX=   258.0964   YX=    18.6597   ZX=    -7.0465
   XY=    43.4000   YY=   133.3143   ZY=    -7.6829
   XZ=    -6.1532   YZ=    -7.3148   ZZ=   139.3495
   Eigenvalues:   123.8006   141.0484   265.9112
      9  C    Isotropic =   158.3999   Anisotropy =    46.3831
   XX=   160.5537   YX=    17.0493   ZX=    -3.8473
   XY=    14.6544   YY=   180.3078   ZY=    -2.0360
   XZ=    -9.7843   YZ=     1.8232   ZZ=   134.3382
   Eigenvalues:   132.3370   153.5407   189.3219
     10  C    Isotropic =   167.1515   Anisotropy =    23.6304
   XX=   170.0620   YX=    -4.5915   ZX=     5.3378
   XY=    -1.8954   YY=   179.4199   ZY=    -8.3776
   XZ=    -5.2601   YZ=    -9.7652   ZZ=   151.9727
   Eigenvalues:   149.2064   169.3430   182.9051
     11  C    Isotropic =   131.9151   Anisotropy =    33.2594
   XX=   121.8174   YX=    -0.5718   ZX=     7.9200
   XY=     0.9502   YY=   125.0691   ZY=     2.8191
   XZ=    17.9995   YZ=    -1.2813   ZZ=   148.8589
   Eigenvalues:   116.6079   125.0493   154.0881
     12  C    Isotropic =   151.4128   Anisotropy =    31.7322
   XX=   171.8094   YX=    -1.2224   ZX=     4.0349
   XY=    -5.3147   YY=   149.4656   ZY=    -3.3724
   XZ=     2.6650   YZ=     2.3502   ZZ=   132.9634
   Eigenvalues:   132.6734   148.9974   172.5676
     13  O    Isotropic =   263.6283   Anisotropy =   115.6478
   XX=   260.0357   YX=    54.8476   ZX=    44.8606
   XY=    57.7828   YY=   287.3386   ZY=    24.8661
   XZ=    26.5000   YZ=    -6.9319   ZZ=   243.5106
   Eigenvalues:   201.4854   248.6726   340.7269
     14  H    Isotropic =    32.6792   Anisotropy =    16.9977
   XX=    34.8930   YX=     6.6901   ZX=     6.2634
   XY=     7.6209   YY=    30.9706   ZY=     2.8100
   XZ=     5.8160   YZ=     2.9663   ZZ=    32.1739
   Eigenvalues:    25.0766    28.9500    44.0110
     15  H    Isotropic =    31.7814   Anisotropy =     8.8370
   XX=    35.9622   YX=    -3.0011   ZX=    -0.9968
   XY=    -3.3761   YY=    31.1219   ZY=     0.5197
   XZ=    -0.9673   YZ=     0.4544   ZZ=    28.2601
   Eigenvalues:    28.1325    29.5390    37.6727
     16  H    Isotropic =    31.3166   Anisotropy =     7.8686
   XX=    29.0716   YX=    -0.6042   ZX=     0.2926
   XY=     0.2793   YY=    33.5385   ZY=     4.5343
   XZ=     0.8000   YZ=     3.4023   ZZ=    31.3395
   Eigenvalues:    28.0435    29.3439    36.5623
     17  H    Isotropic =    31.3495   Anisotropy =     7.9446
   XX=    28.9446   YX=    -1.2105   ZX=    -0.1006
   XY=    -0.5015   YY=    34.5893   ZY=    -4.0945
   XZ=    -0.4279   YZ=    -2.8949   ZZ=    30.5144
   Eigenvalues:    28.0193    29.3832    36.6459
     18  H    Isotropic =    31.9713   Anisotropy =     9.1526
   XX=    36.2898   YX=     2.3454   ZX=     2.3005
   XY=     2.5929   YY=    28.9910   ZY=     1.2698
   XZ=     2.6896   YZ=     1.2789   ZZ=    30.6330
   Eigenvalues:    28.0937    29.7471    38.0730
     19  H    Isotropic =    31.8178   Anisotropy =     7.8346
   XX=    29.7212   YX=     0.3079   ZX=     1.3153
   XY=     0.3335   YY=    29.0982   ZY=    -0.8730
   XZ=     0.4527   YZ=    -2.2894   ZZ=    36.6341
   Eigenvalues:    28.5596    29.8530    37.0409
     20  H    Isotropic =    29.7404   Anisotropy =     6.4940
   XX=    29.6962   YX=    -1.4141   ZX=     2.0107
   XY=    -2.2422   YY=    32.0110   ZY=     2.7611
   XZ=     2.6236   YZ=     4.4289   ZZ=    27.5142
   Eigenvalues:    24.0212    31.1303    34.0698
     21  H    Isotropic =    31.9777   Anisotropy =     9.1572
   XX=    35.2011   YX=     2.4032   ZX=    -2.9566
   XY=     2.6719   YY=    29.4392   ZY=    -2.0422
   XZ=    -3.1962   YZ=    -2.0181   ZZ=    31.2927
   Eigenvalues:    28.0736    29.7769    38.0825
     22  H    Isotropic =    29.6983   Anisotropy =     6.5252
   XX=    28.7186   YX=    -1.8948   ZX=    -2.6216
   XY=    -2.3218   YY=    32.7744   ZY=    -1.6972
   XZ=    -3.1887   YZ=    -3.5271   ZZ=    27.6021
   Eigenvalues:    23.9283    31.1182    34.0485
     23  H    Isotropic =    31.7612   Anisotropy =     7.7858
   XX=    29.6646   YX=     0.7339   ZX=     0.0975
   XY=     0.3560   YY=    28.7404   ZY=    -0.2549
   XZ=     1.0634   YZ=     1.1050   ZZ=    36.8786
   Eigenvalues:    28.4855    29.8464    36.9517
     24  H    Isotropic =    29.1430   Anisotropy =     7.7649
   XX=    28.4873   YX=     0.5826   ZX=    -0.5900
   XY=     0.2120   YY=    28.8476   ZY=     4.6599
   XZ=    -1.0667   YZ=     4.9117   ZZ=    30.0941
   Eigenvalues:    24.4664    28.6430    34.3196
     25  H    Isotropic =    29.5390   Anisotropy =     6.8830
   XX=    32.1084   YX=    -0.5238   ZX=     0.5749
   XY=    -1.9640   YY=    31.8139   ZY=    -3.5413
   XZ=     1.0714   YZ=    -2.9487   ZZ=    24.6946
   Eigenvalues:    23.4255    31.0637    34.1276
     26  H    Isotropic =    30.9982   Anisotropy =     9.6672
   XX=    29.3211   YX=     0.3854   ZX=    -1.6657
   XY=     0.6795   YY=    28.0105   ZY=    -3.1494
   XZ=    -2.4501   YZ=    -3.4592   ZZ=    35.6630
   Eigenvalues:    26.7587    28.7929    37.4430
     27  H    Isotropic =    31.5716   Anisotropy =     9.8862
   XX=    33.0454   YX=     4.2787   ZX=     0.0158
   XY=     4.6897   YY=    34.2188   ZY=     0.1200
   XZ=     0.0581   YZ=    -0.9566   ZZ=    27.4505
   Eigenvalues:    27.3891    29.1632    38.1624
     28  H    Isotropic =    28.7382   Anisotropy =     8.0554
   XX=    31.6838   YX=    -2.2507   ZX=    -1.9046
   XY=    -3.0482   YY=    26.1362   ZY=     1.1210
   XZ=    -2.8689   YZ=     1.9292   ZZ=    28.3946
   Eigenvalues:    24.9601    27.1460    34.1084
     29  H    Isotropic =    29.2683   Anisotropy =     7.6501
   XX=    29.3276   YX=    -1.2672   ZX=     0.8676
   XY=    -0.5713   YY=    32.2561   ZY=    -3.8490
   XZ=     1.1442   YZ=    -3.6461   ZZ=    26.2211
   Eigenvalues:    24.3728    29.0637    34.3683
     30  H    Isotropic =    29.4723   Anisotropy =     9.2050
   XX=    29.0616   YX=    -1.8745   ZX=    -0.9755
   XY=    -1.3578   YY=    29.9975   ZY=     4.7308
   XZ=    -0.6765   YZ=     6.1824   ZZ=    29.3578
   Eigenvalues:    24.1560    28.6520    35.6090
 End of Minotr F.D. properties file   721 does not exist.
 End of Minotr F.D. properties file   722 does not exist.
 Leave Link 1002 at Wed Oct 19 23:01:28 2011, MaxMem=  128000000 cpu:      80.3
 (Enter /home/foresman/gdv/l1101.exe)
 Using compressed storage, NAtomX=    30.
 Will process     31 centers per pass.
 Leave Link 1101 at Wed Oct 19 23:01:29 2011, MaxMem=  128000000 cpu:       1.8
 (Enter /home/foresman/gdv/l1102.exe)
 Symmetrizing basis deriv contribution to polar:
 IMax=3 JMax=2 DiffMx= 0.00D+00
 Leave Link 1102 at Wed Oct 19 23:01:29 2011, MaxMem=  128000000 cpu:       0.4
 (Enter /home/foresman/gdv/l1110.exe)
 Forming Gx(P) for the SCF density, NAtomX=    30.
 Integral derivatives from FoFJK, PRISM(SPDF).
 Do as many integral derivatives as possible in FoFJK.
 G2DrvN: MDV=     127999656.
 G2DrvN: will do    31 centers at a time, making    1 passes.
 Calling FoFCou, ICntrl=  3107 FMM=F I1Cent=   0 AccDes= 0.00D+00.
 FoFJK:  IHMeth= 1 ICntrl=    3107 DoSepK=F KAlg= 0 I1Cent=   0 FoldK=F
 IRaf=       0 NMat=   1 IRICut=       1 DoRegI=T DoRafI=F ISym2E= 0.
 FoFCou: FMM=F IPFlag=           0 FMFlag=      100000 FMFlg1=           0
         NFxFlg=           0 DoJE=F BraDBF=F KetDBF=F FulRan=T
         wScrn=  0.000000 ICntrl=    3107 IOpCl=  0 I1Cent=           0 NGrid=           0
         NMat0=    1 NMatS0=      1 NMatT0=    0 NMatD0=    1 NMtDS0=    0 NMtDT0=    0
 Symmetry not used in FoFCou.
 End of G2Drv F.D. properties file   721 does not exist.
 End of G2Drv F.D. properties file   722 does not exist.
 Leave Link 1110 at Wed Oct 19 23:02:00 2011, MaxMem=  128000000 cpu:     252.5
 (Enter /home/foresman/gdv/l1002.exe)
 Minotr:  Closed shell wavefunction.
          IDoAtm=111111111111111111111111111111
          Direct CPHF calculation.
          Differentiating once with respect to electric field.
                with respect to dipole field.
          Differentiating once with respect to nuclear coordinates.
          Requested convergence is 1.0D-08 RMS, and 1.0D-07 maximum.
          Secondary convergence is 1.0D-12 RMS, and 1.0D-12 maximum.
          NewPWx=T KeepS1=F KeepF1=F KeepIn=T MapXYZ=F SortEE=F KeepMc=T.
          MDV=     127999545 using IRadAn=       2.
 Generate precomputed XC quadrature information.
 Keep R1 ints in memory in canonical form, NReq=67619516.
 FoFCou: FMM=F IPFlag=           0 FMFlag=           0 FMFlg1=           0
         NFxFlg=           0 DoJE=F BraDBF=F KetDBF=F FulRan=T
         wScrn=  0.000000 ICntrl=     600 IOpCl=  0 I1Cent=           0 NGrid=           0
         NMat0=    1 NMatS0=  11476 NMatT0=    0 NMatD0=    1 NMtDS0=    0 NMtDT0=    0
 Symmetry not used in FoFCou.
          Solving linear equations simultaneously, MaxMat=       0.
          There are    93 degrees of freedom in the 1st order CPHF.  IDoFFX=5 NUNeed=    93.
     90 vectors produced by pass  0 Test12= 5.48D-15 1.08D-09 XBig12= 7.44D+01 3.74D+00.
 AX will form    90 AO Fock derivatives at one time.
     90 vectors produced by pass  1 Test12= 5.48D-15 1.08D-09 XBig12= 1.35D+01 1.10D+00.
     90 vectors produced by pass  2 Test12= 5.48D-15 1.08D-09 XBig12= 5.12D-02 2.64D-02.
     90 vectors produced by pass  3 Test12= 5.48D-15 1.08D-09 XBig12= 7.57D-05 1.02D-03.
     90 vectors produced by pass  4 Test12= 5.48D-15 1.08D-09 XBig12= 5.69D-08 2.09D-05.
     42 vectors produced by pass  5 Test12= 5.48D-15 1.08D-09 XBig12= 3.23D-11 5.37D-07.
      3 vectors produced by pass  6 Test12= 5.48D-15 1.08D-09 XBig12= 1.39D-14 1.09D-08.
 InvSVY:  IOpt=1 It=  1 EMax= 1.78D-14
 Solved reduced A of dimension   495 with    93 vectors.
 FullF1:  Do perturbations    1 to     3.
 Isotropic polarizability for W=    0.000000      103.63 Bohr**3.
 Dipole-magnetic dipole polarizability for W=    0.000000:
                 1             2             3 
      1   0.196839D+01 -0.936367D+01 -0.797290D+01
      2   0.198369D+02  0.290577D+01 -0.189819D+02
      3  -0.682913D+01  0.751477D+01 -0.391304D+01
 DQ contribution to OR G for W=    0.000000:
                 1             2             3 
      1   0.727474D+00 -0.692995D+01 -0.534256D+02
      2   0.237085D+02  0.244564D+01 -0.559898D+02
      3   0.264785D+02  0.548703D+02 -0.317312D+01
 Optical Rotation G' tensor for W=    0.000000:
                 1             2             3 
      1  -0.321769D+00 -0.520994D+00  0.332124D+00
      2  -0.520994D+00 -0.360916D+00  0.272683D+01
      3   0.332124D+00  0.272683D+01  0.164380D+01
 OR G Eigenvalues:    -2.4434    -0.1423     3.5468  Iso=    -0.3204
 Eigenvectors:
   (1)   0.279388   0.788098  -0.548493
   (2)   0.960154  -0.225278   0.165389
   (3)  -0.006780   0.572845   0.819635
 w=    0.000000 a.u., Optical Rotation Beta=     -0.3204 au.
 Molar Mass =    187.2382 grams/mole, [Alpha]D (static) =      -66.14 deg.
 AAT (total):
 -0.0230 -0.0543 -0.1745
 -0.0167  0.0046 -0.3713
  0.1080  0.3621  0.0018
  0.0073 -0.0109  0.1608
  0.0171 -0.0177  0.1885
 -0.1045 -0.0234  0.0112
  0.0497  0.1748 -0.1393
 -0.1387 -0.1184  0.2007
  0.0266 -0.2267  0.0945
 -0.0620 -0.1711 -0.1676
  0.1591  0.1231  0.2008
  0.0550 -0.1762 -0.0686
  0.0091  0.0948  0.3778
  0.0022 -0.0384  0.2344
 -0.5630 -0.4310 -0.0035
  0.0715 -0.2925  0.7108
  0.1492 -0.0347  0.3041
 -0.2460  0.0896 -0.0451
  0.0028  0.1451 -1.0984
 -0.1677  0.0743 -0.1549
  1.0721 -0.2502 -0.0431
 -0.0584  0.2396 -0.2741
 -0.1274  0.1145 -0.4484
 -0.0031  0.4109  0.0171
  0.0029 -0.1289 -0.0278
  0.1291 -0.0727  0.2671
 -0.0053 -0.1831  0.0506
  0.0665  0.1012  0.1619
 -0.1600 -0.1747 -0.2558
 -0.0762  0.0146 -0.0166
 -0.0177 -0.1078 -0.0013
 -0.1547 -0.0136  0.4964
 -0.1727 -0.8564  0.0914
 -0.0129  0.0816 -0.0557
 -0.0535 -0.0009  0.1086
  0.1003 -0.2423  0.1254
 -0.1432 -0.2525  0.3809
  0.5631  0.1261 -0.8165
  0.0693  1.3653 -0.0556
  0.1948  0.1030 -0.4727
 -0.1223 -0.0700  0.4293
  0.1356 -0.6244 -0.0118
  0.0227  0.0276  0.1672
 -0.0212 -0.0009 -0.2274
  0.0474  0.2701 -0.0195
 -0.0675  0.0232 -0.0326
 -0.1911 -0.1049  0.0764
 -0.0229 -0.1868  0.2153
  0.0439 -0.0575 -0.0896
  0.2128  0.1204  0.0844
 -0.0372 -0.1468 -0.2139
 -0.0243  0.1568 -0.0022
  0.0236  0.0137 -0.2716
 -0.0217  0.2128  0.0108
 -0.0419 -0.0928 -0.0315
  0.0629  0.2016  0.0433
  0.1975 -0.1929 -0.1103
 -0.0349 -0.0620  0.2390
 -0.0332 -0.0786  0.1579
 -0.1967  0.0104  0.1363
  0.0125 -0.0847 -0.0232
 -0.0583 -0.0049 -0.2632
 -0.0342  0.2324 -0.0094
  0.0465  0.0101  0.2126
  0.0882  0.0427  0.1691
 -0.2220  0.0407 -0.1132
  0.0668  0.0485 -0.0177
 -0.0817 -0.1720  0.0198
  0.1830 -0.2306  0.0510
  0.0405  0.2099 -0.0955
 -0.1700 -0.0270  0.0215
 -0.1406  0.0604 -0.0832
 -0.0490 -0.0975 -0.0617
  0.1008 -0.0227 -0.1449
  0.0338  0.0522  0.1352
  0.0027 -0.1366  0.0271
  0.1327  0.0182  0.0576
 -0.1232  0.2232  0.0018
 -0.0484  0.1252 -0.1935
 -0.1291  0.0865  0.0449
  0.1017 -0.1005 -0.0667
  0.0085 -0.0529  0.1058
  0.0234  0.0291  0.0291
  0.0092  0.1103 -0.0844
 -0.0658  0.1269  0.1490
 -0.1996 -0.0269  0.0474
 -0.0403  0.0615  0.1305
  0.0104 -0.1298  0.0626
  0.1788  0.0083  0.0468
  0.0731  0.1335 -0.1097
 End of Minotr F.D. properties file   721 does not exist.
 End of Minotr F.D. properties file   722 does not exist.
 Leave Link 1002 at Wed Oct 19 23:02:30 2011, MaxMem=  128000000 cpu:     238.3
 (Enter /home/foresman/gdv/l601.exe)
 Copying SCF densities to generalized density rwf, IOpCl= 0 IROHF=0.

 **********************************************************************

            Population analysis using the SCF density.

 **********************************************************************

 Orbital symmetries:
       Occupied  (A) (A) (A) (A) (A) (A) (A) (A) (A) (A) (A) (A)
                 (A) (A) (A) (A) (A) (A) (A) (A) (A) (A) (A) (A)
                 (A) (A) (A) (A) (A) (A) (A) (A) (A) (A) (A) (A)
                 (A) (A) (A) (A) (A) (A) (A) (A) (A) (A) (A) (A)
                 (A) (A) (A)
       Virtual   (A) (A) (A) (A) (A) (A) (A) (A) (A) (A) (A) (A)
                 (A) (A) (A) (A) (A) (A) (A) (A) (A) (A) (A) (A)
                 (A) (A) (A) (A) (A) (A) (A) (A) (A) (A) (A) (A)
                 (A) (A) (A) (A) (A) (A) (A) (A) (A) (A) (A) (A)
                 (A) (A) (A) (A) (A) (A) (A) (A) (A) (A) (A) (A)
                 (A) (A) (A) (A) (A) (A) (A) (A) (A) (A) (A) (A)
                 (A) (A) (A) (A) (A) (A) (A) (A) (A) (A) (A) (A)
                 (A) (A) (A) (A) (A) (A) (A) (A) (A) (A) (A) (A)
                 (A) (A) (A) (A)
 The electronic state is 1-A.
 Alpha  occ. eigenvalues --  -19.05304 -19.03167 -18.99063 -14.27229 -10.25430
 Alpha  occ. eigenvalues --  -10.18573 -10.18318 -10.15717 -10.15553 -10.13380
 Alpha  occ. eigenvalues --  -10.10614 -10.09755 -10.09659  -1.07284  -1.01322
 Alpha  occ. eigenvalues --   -0.98936  -0.93544  -0.80609  -0.77913  -0.74043
 Alpha  occ. eigenvalues --   -0.68616  -0.68184  -0.65219  -0.60437  -0.57325
 Alpha  occ. eigenvalues --   -0.54233  -0.52059  -0.49217  -0.47602  -0.45329
 Alpha  occ. eigenvalues --   -0.44737  -0.44078  -0.43039  -0.42215  -0.41358
 Alpha  occ. eigenvalues --   -0.40076  -0.38745  -0.38572  -0.37848  -0.37236
 Alpha  occ. eigenvalues --   -0.36962  -0.36387  -0.35724  -0.33585  -0.33500
 Alpha  occ. eigenvalues --   -0.31630  -0.31579  -0.26267  -0.26105  -0.23948
 Alpha  occ. eigenvalues --   -0.22285
 Alpha virt. eigenvalues --    0.06290   0.08076   0.10837   0.12109   0.13291
 Alpha virt. eigenvalues --    0.13788   0.15730   0.16303   0.17120   0.17313
 Alpha virt. eigenvalues --    0.18073   0.18153   0.19041   0.19510   0.19995
 Alpha virt. eigenvalues --    0.20779   0.21474   0.22091   0.22307   0.22844
 Alpha virt. eigenvalues --    0.24160   0.24456   0.24835   0.25820   0.26306
 Alpha virt. eigenvalues --    0.28638   0.29275   0.29748   0.30331   0.42683
 Alpha virt. eigenvalues --    0.49564   0.65545   0.66387   0.66713   0.68100
 Alpha virt. eigenvalues --    0.68422   0.69812   0.70387   0.71824   0.73418
 Alpha virt. eigenvalues --    0.74424   0.75544   0.76147   0.76646   0.77797
 Alpha virt. eigenvalues --    0.80736   0.82926   0.83409   0.86608   0.87810
 Alpha virt. eigenvalues --    0.89860   0.91283   0.93771   0.95855   0.97094
 Alpha virt. eigenvalues --    0.98225   1.00418   1.02090   1.02896   1.04796
 Alpha virt. eigenvalues --    1.05362   1.06902   1.07744   1.08808   1.09517
 Alpha virt. eigenvalues --    1.10107   1.10260   1.11023   1.11879   1.12787
 Alpha virt. eigenvalues --    1.14166   1.16473   1.16622   1.19343   1.23148
 Alpha virt. eigenvalues --    1.29138   1.45405   1.52901   1.56492   1.57271
 Alpha virt. eigenvalues --    1.61077   1.63633   1.65149   1.71561   1.73111
 Alpha virt. eigenvalues --    1.73304   1.77658   1.79599   1.88668   1.99009
 Alpha virt. eigenvalues --    1.99326   2.03383   2.12740   2.14454   2.27313
 Alpha virt. eigenvalues --    2.35414   2.85764   3.08849   3.31926   3.40907
          Condensed to atoms (all electrons):
              1          2          3          4          5          6
     1  C    5.282794   0.289683   0.248812   0.249335   0.198168  -0.050631
     2  C    0.289683   5.353965  -0.082000  -0.082056  -0.039135   0.003868
     3  C    0.248812  -0.082000   5.476667  -0.084912  -0.036277  -0.007925
     4  C    0.249335  -0.082056  -0.084912   5.475726  -0.036209  -0.007985
     5  O    0.198168  -0.039135  -0.036277  -0.036209   8.328343   0.230076
     6  C   -0.050631   0.003868  -0.007925  -0.007985   0.230076   4.282480
     7  O    0.001337   0.000065  -0.009766  -0.009905  -0.045539   0.470137
     8  N    0.002749  -0.000043  -0.000292  -0.000281  -0.077783   0.200012
     9  C   -0.000025  -0.000047   0.000026   0.000011   0.006802  -0.029447
    10  C   -0.000004   0.000000   0.000000   0.000000   0.000241   0.003396
    11  C    0.000001   0.000000   0.000000   0.000000  -0.000023   0.006564
    12  C   -0.000075   0.000001   0.000004   0.000005   0.001588  -0.047712
    13  O    0.000000   0.000000   0.000000   0.000000   0.000000  -0.000140
    14  H    0.000000   0.000000   0.000000   0.000000   0.000000   0.000010
    15  H   -0.044621   0.350255   0.001207   0.001237   0.001909  -0.000039
    16  H   -0.038393   0.360369   0.004559  -0.003561   0.002024  -0.000006
    17  H   -0.038474   0.359965  -0.003605   0.004568   0.001989  -0.000003
    18  H   -0.035695  -0.000464   0.339677   0.000898   0.001571   0.000341
    19  H   -0.040249  -0.003172   0.357886   0.004359   0.001061   0.000475
    20  H   -0.036436   0.003591   0.342683  -0.004112  -0.003593   0.001900
    21  H   -0.035875  -0.000426   0.000863   0.339753   0.001577   0.000336
    22  H   -0.036485   0.003579  -0.004055   0.342653  -0.003618   0.001892
    23  H   -0.040150  -0.003175   0.004345   0.358304   0.001055   0.000465
    24  H   -0.000006   0.000000   0.000001  -0.000003   0.000575  -0.001859
    25  H   -0.000120   0.000043  -0.000012   0.000018   0.006847  -0.001835
    26  H    0.000000   0.000000   0.000000   0.000000   0.000002  -0.000131
    27  H    0.000000   0.000000   0.000000   0.000000   0.000000  -0.000014
    28  H    0.000000   0.000000   0.000000   0.000000   0.000000  -0.000062
    29  H    0.000001   0.000000   0.000001  -0.000002   0.000028  -0.000929
    30  H    0.000001   0.000000  -0.000001   0.000000  -0.000004  -0.002059
              7          8          9         10         11         12
     1  C    0.001337   0.002749  -0.000025  -0.000004   0.000001  -0.000075
     2  C    0.000065  -0.000043  -0.000047   0.000000   0.000000   0.000001
     3  C   -0.009766  -0.000292   0.000026   0.000000   0.000000   0.000004
     4  C   -0.009905  -0.000281   0.000011   0.000000   0.000000   0.000005
     5  O   -0.045539  -0.077783   0.006802   0.000241  -0.000023   0.001588
     6  C    0.470137   0.200012  -0.029447   0.003396   0.006564  -0.047712
     7  O    8.143976  -0.070758   0.001153  -0.000032   0.000202   0.005901
     8  N   -0.070758   7.400517   0.236523  -0.062393  -0.050611   0.251692
     9  C    0.001153   0.236523   5.192272   0.239112  -0.093366  -0.080953
    10  C   -0.000032  -0.062393   0.239112   5.638476   0.180656  -0.090431
    11  C    0.000202  -0.050611  -0.093366   0.180656   5.336387   0.227961
    12  C    0.005901   0.251692  -0.080953  -0.090431   0.227961   5.237126
    13  O    0.000000  -0.000692   0.006493  -0.052353   0.240019  -0.045851
    14  H    0.000000  -0.000038  -0.000567  -0.002077  -0.047425   0.006755
    15  H    0.000002   0.000000   0.000000   0.000000   0.000000   0.000000
    16  H    0.000001  -0.000006   0.000027   0.000000   0.000000   0.000000
    17  H    0.000001  -0.000005  -0.000009   0.000000   0.000000   0.000000
    18  H    0.000087   0.000001   0.000000   0.000000   0.000000   0.000000
    19  H    0.000032  -0.000005  -0.000004   0.000000   0.000000   0.000000
    20  H    0.024096   0.000145  -0.000008   0.000000   0.000000   0.000002
    21  H    0.000087   0.000001   0.000000   0.000000   0.000000   0.000000
    22  H    0.024276   0.000143  -0.000012   0.000000   0.000000   0.000002
    23  H    0.000038  -0.000009   0.000005   0.000000   0.000000   0.000000
    24  H    0.000010  -0.043330   0.360372  -0.050285  -0.003012   0.002983
    25  H    0.000025  -0.034968   0.368866  -0.029804   0.004203   0.002341
    26  H    0.000000   0.001659  -0.035948   0.324696  -0.030977   0.002690
    27  H    0.000000   0.002495  -0.034394   0.368980  -0.034372   0.004117
    28  H    0.000000   0.002008   0.005579  -0.058023   0.361591  -0.047238
    29  H    0.002888  -0.036881   0.002145   0.005631  -0.034800   0.356018
    30  H    0.000778  -0.041306   0.003967   0.000025  -0.039109   0.349607
             13         14         15         16         17         18
     1  C    0.000000   0.000000  -0.044621  -0.038393  -0.038474  -0.035695
     2  C    0.000000   0.000000   0.350255   0.360369   0.359965  -0.000464
     3  C    0.000000   0.000000   0.001207   0.004559  -0.003605   0.339677
     4  C    0.000000   0.000000   0.001237  -0.003561   0.004568   0.000898
     5  O    0.000000   0.000000   0.001909   0.002024   0.001989   0.001571
     6  C   -0.000140   0.000010  -0.000039  -0.000006  -0.000003   0.000341
     7  O    0.000000   0.000000   0.000002   0.000001   0.000001   0.000087
     8  N   -0.000692  -0.000038   0.000000  -0.000006  -0.000005   0.000001
     9  C    0.006493  -0.000567   0.000000   0.000027  -0.000009   0.000000
    10  C   -0.052353  -0.002077   0.000000   0.000000   0.000000   0.000000
    11  C    0.240019  -0.047425   0.000000   0.000000   0.000000   0.000000
    12  C   -0.045851   0.006755   0.000000   0.000000   0.000000   0.000000
    13  O    8.168819   0.241498   0.000000   0.000000   0.000000   0.000000
    14  H    0.241498   0.467793   0.000000   0.000000   0.000000   0.000000
    15  H    0.000000   0.000000   0.550598  -0.023926  -0.024042   0.001675
    16  H    0.000000   0.000000  -0.023926   0.524660  -0.025994  -0.000083
    17  H    0.000000   0.000000  -0.024042  -0.025994   0.527481   0.000163
    18  H    0.000000   0.000000   0.001675  -0.000083   0.000163   0.555819
    19  H    0.000000   0.000000   0.000127  -0.000050   0.003780  -0.024849
    20  H    0.000000   0.000000   0.000011  -0.000085  -0.000047  -0.020682
    21  H    0.000000   0.000000   0.001650   0.000158  -0.000084   0.001168
    22  H    0.000000   0.000000   0.000011  -0.000046  -0.000085   0.000214
    23  H    0.000000   0.000000   0.000125   0.003764  -0.000048  -0.000070
    24  H    0.007748   0.000192   0.000000   0.000014  -0.000003   0.000000
    25  H    0.000098  -0.000018   0.000000  -0.000012   0.000140   0.000000
    26  H    0.001893   0.000030   0.000000   0.000000   0.000000   0.000000
    27  H   -0.001730   0.003782   0.000000   0.000000   0.000000   0.000000
    28  H   -0.031483  -0.002514   0.000000   0.000000   0.000000   0.000000
    29  H    0.004158  -0.000125   0.000000   0.000000   0.000000   0.000000
    30  H    0.001650  -0.000181   0.000000   0.000000   0.000000   0.000000
             19         20         21         22         23         24
     1  C   -0.040249  -0.036436  -0.035875  -0.036485  -0.040150  -0.000006
     2  C   -0.003172   0.003591  -0.000426   0.003579  -0.003175   0.000000
     3  C    0.357886   0.342683   0.000863  -0.004055   0.004345   0.000001
     4  C    0.004359  -0.004112   0.339753   0.342653   0.358304  -0.000003
     5  O    0.001061  -0.003593   0.001577  -0.003618   0.001055   0.000575
     6  C    0.000475   0.001900   0.000336   0.001892   0.000465  -0.001859
     7  O    0.000032   0.024096   0.000087   0.024276   0.000038   0.000010
     8  N   -0.000005   0.000145   0.000001   0.000143  -0.000009  -0.043330
     9  C   -0.000004  -0.000008   0.000000  -0.000012   0.000005   0.360372
    10  C    0.000000   0.000000   0.000000   0.000000   0.000000  -0.050285
    11  C    0.000000   0.000000   0.000000   0.000000   0.000000  -0.003012
    12  C    0.000000   0.000002   0.000000   0.000002   0.000000   0.002983
    13  O    0.000000   0.000000   0.000000   0.000000   0.000000   0.007748
    14  H    0.000000   0.000000   0.000000   0.000000   0.000000   0.000192
    15  H    0.000127   0.000011   0.001650   0.000011   0.000125   0.000000
    16  H   -0.000050  -0.000085   0.000158  -0.000046   0.003764   0.000014
    17  H    0.003780  -0.000047  -0.000084  -0.000085  -0.000048  -0.000003
    18  H   -0.024849  -0.020682   0.001168   0.000214  -0.000070   0.000000
    19  H    0.537561  -0.023419  -0.000070   0.000010  -0.000098   0.000000
    20  H   -0.023419   0.483660   0.000224   0.002923   0.000010   0.000000
    21  H   -0.000070   0.000224   0.556513  -0.020735  -0.024767   0.000000
    22  H    0.000010   0.002923  -0.020735   0.482666  -0.023185   0.000004
    23  H   -0.000098   0.000010  -0.024767  -0.023185   0.534404   0.000005
    24  H    0.000000   0.000000   0.000000   0.000004   0.000005   0.541628
    25  H    0.000019   0.000002   0.000000   0.000000  -0.000001  -0.033618
    26  H    0.000000   0.000000   0.000000   0.000000   0.000000   0.003948
    27  H    0.000000   0.000000   0.000000   0.000000   0.000000  -0.000808
    28  H    0.000000   0.000000   0.000000   0.000000   0.000000   0.000087
    29  H    0.000000  -0.000002   0.000000   0.000010   0.000000   0.000404
    30  H    0.000000   0.000004   0.000000  -0.000001   0.000000  -0.000222
             25         26         27         28         29         30
     1  C   -0.000120   0.000000   0.000000   0.000000   0.000001   0.000001
     2  C    0.000043   0.000000   0.000000   0.000000   0.000000   0.000000
     3  C   -0.000012   0.000000   0.000000   0.000000   0.000001  -0.000001
     4  C    0.000018   0.000000   0.000000   0.000000  -0.000002   0.000000
     5  O    0.006847   0.000002   0.000000   0.000000   0.000028  -0.000004
     6  C   -0.001835  -0.000131  -0.000014  -0.000062  -0.000929  -0.002059
     7  O    0.000025   0.000000   0.000000   0.000000   0.002888   0.000778
     8  N   -0.034968   0.001659   0.002495   0.002008  -0.036881  -0.041306
     9  C    0.368866  -0.035948  -0.034394   0.005579   0.002145   0.003967
    10  C   -0.029804   0.324696   0.368980  -0.058023   0.005631   0.000025
    11  C    0.004203  -0.030977  -0.034372   0.361591  -0.034800  -0.039109
    12  C    0.002341   0.002690   0.004117  -0.047238   0.356018   0.349607
    13  O    0.000098   0.001893  -0.001730  -0.031483   0.004158   0.001650
    14  H   -0.000018   0.000030   0.003782  -0.002514  -0.000125  -0.000181
    15  H    0.000000   0.000000   0.000000   0.000000   0.000000   0.000000
    16  H   -0.000012   0.000000   0.000000   0.000000   0.000000   0.000000
    17  H    0.000140   0.000000   0.000000   0.000000   0.000000   0.000000
    18  H    0.000000   0.000000   0.000000   0.000000   0.000000   0.000000
    19  H    0.000019   0.000000   0.000000   0.000000   0.000000   0.000000
    20  H    0.000002   0.000000   0.000000   0.000000  -0.000002   0.000004
    21  H    0.000000   0.000000   0.000000   0.000000   0.000000   0.000000
    22  H    0.000000   0.000000   0.000000   0.000000   0.000010  -0.000001
    23  H   -0.000001   0.000000   0.000000   0.000000   0.000000   0.000000
    24  H   -0.033618   0.003948  -0.000808   0.000087   0.000404  -0.000222
    25  H    0.503756  -0.003410  -0.000003  -0.000012  -0.000110   0.000122
    26  H   -0.003410   0.553311  -0.023106   0.001319  -0.000079   0.000164
    27  H   -0.000003  -0.023106   0.527763  -0.001094  -0.000058  -0.000132
    28  H   -0.000012   0.001319  -0.001094   0.582841   0.000248   0.001731
    29  H   -0.000110  -0.000079  -0.000058   0.000248   0.491168  -0.032373
    30  H    0.000122   0.000164  -0.000132   0.001731  -0.032373   0.550515
 Mulliken charges:
              1
     1  C    0.124358
     2  C   -0.514865
     3  C   -0.547886
     4  C   -0.547842
     5  O   -0.541676
     6  C    0.948823
     7  O   -0.539093
     8  N   -0.678546
     9  C   -0.148571
    10  C   -0.415811
    11  C   -0.023888
    12  C   -0.136533
    13  O   -0.540128
    14  H    0.332887
    15  H    0.183818
    16  H    0.196585
    17  H    0.194312
    18  H    0.180229
    19  H    0.186605
    20  H    0.229132
    21  H    0.179626
    22  H    0.229840
    23  H    0.188985
    24  H    0.215176
    25  H    0.217444
    26  H    0.203938
    27  H    0.188575
    28  H    0.185022
    29  H    0.242660
    30  H    0.206823
 Sum of Mulliken charges =   0.00000
 Mulliken charges with hydrogens summed into heavy atoms:
              1
     1  C    0.124358
     2  C    0.059851
     3  C    0.048079
     4  C    0.050610
     5  O   -0.541676
     6  C    0.948823
     7  O   -0.539093
     8  N   -0.678546
     9  C    0.284049
    10  C   -0.023299
    11  C    0.161135
    12  C    0.312950
    13  O   -0.207241
 Sum of Mulliken charges with hydrogens summed into heavy atoms =   0.00000
 APT charges:
              1
     1  C    0.649303
     2  C   -0.026929
     3  C   -0.107151
     4  C   -0.107634
     5  O   -0.963057
     6  C    1.443450
     7  O   -0.789439
     8  N   -0.868364
     9  C    0.323537
    10  C    0.005798
    11  C    0.443395
    12  C    0.313125
    13  O   -0.497568
    14  H    0.195927
    15  H   -0.002840
    16  H    0.008170
    17  H    0.006828
    18  H   -0.002753
    19  H   -0.000376
    20  H    0.081286
    21  H   -0.002361
    22  H    0.081192
    23  H    0.001537
    24  H   -0.037661
    25  H    0.007415
    26  H   -0.013373
    27  H   -0.020349
    28  H   -0.084031
    29  H    0.006647
    30  H   -0.043724
 Sum of APT charges =   0.00000
 APT charges with hydrogens summed into heavy atoms:
              1
     1  C    0.649303
     2  C   -0.014771
     3  C   -0.028994
     4  C   -0.027266
     5  O   -0.963057
     6  C    1.443450
     7  O   -0.789439
     8  N   -0.868364
     9  C    0.293290
    10  C   -0.027924
    11  C    0.359365
    12  C    0.276048
    13  O   -0.301642
 Sum of APT charges with hydrogens summed into heavy atoms =   0.00000
 Electronic spatial extent (au):  <R**2>=           3115.1250
 Charge=              0.0000 electrons
 Dipole moment (field-independent basis, Debye):
    X=              2.3538    Y=              2.9872    Z=             -0.7600  Tot=              3.8783
 Quadrupole moment (field-independent basis, Debye-Ang):
   XX=            -61.5750   YY=            -82.1898   ZZ=            -79.4295
   XY=              2.5380   XZ=             -2.5267   YZ=              1.2758
 Traceless Quadrupole moment (field-independent basis, Debye-Ang):
   XX=             12.8231   YY=             -7.7917   ZZ=             -5.0314
   XY=              2.5380   XZ=             -2.5267   YZ=              1.2758
 Octapole moment (field-independent basis, Debye-Ang**2):
  XXX=             55.7054  YYY=              7.4480  ZZZ=              2.7899  XYY=             15.5204
  XXY=             16.6478  XXZ=              3.6025  XZZ=              4.2416  YZZ=              1.9931
  YYZ=              3.3579  XYZ=              9.3150
 Hexadecapole moment (field-independent basis, Debye-Ang**3):
 XXXX=          -2749.5819 YYYY=           -596.4582 ZZZZ=           -365.6971 XXXY=             80.2573
 XXXZ=             53.3612 YYYX=             -4.2083 YYYZ=             -1.9935 ZZZX=             21.2023
 ZZZY=              7.6946 XXYY=           -601.5507 XXZZ=           -576.8007 YYZZ=           -152.7465
 XXYZ=             36.8747 YYXZ=             10.6694 ZZXY=              8.4873
 N-N= 8.796173015512D+02 E-N=-3.229102779815D+03  KE= 6.248576783196D+02
  Exact polarizability: 129.336   3.549  96.010  -1.264   1.877  85.549
 Approx polarizability: 149.923   9.218 146.889  -1.141   3.219 119.254
 Calculating spin-rotation constants.
 Leave Link  601 at Wed Oct 19 23:02:34 2011, MaxMem=  128000000 cpu:      32.1
 (Enter /home/foresman/gdv/l701.exe)
 Compute integral second derivatives.
 ... and contract with generalized density number  0.
 Leave Link  701 at Wed Oct 19 23:02:34 2011, MaxMem=  128000000 cpu:       1.3
 (Enter /home/foresman/gdv/l702.exe)
 L702 exits ... SP integral derivatives will be done elsewhere.
 Leave Link  702 at Wed Oct 19 23:02:34 2011, MaxMem=  128000000 cpu:       0.3
 (Enter /home/foresman/gdv/l703.exe)
 Compute integral second derivatives, UseDBF=F ICtDFT=           0.
 Integral derivatives from FoFJK, PRISM(SPDF).
 Calling FoFJK, ICntrl=    100127 FMM=F ISym2X=0 I1Cent= 0 IOpClX= 0 NMat=1 NMatS=1 NMatT=0.
 FoFJK:  IHMeth= 1 ICntrl=  100127 DoSepK=F KAlg= 0 I1Cent=   0 FoldK=F
 IRaf=       0 NMat=   1 IRICut=       1 DoRegI=T DoRafI=F ISym2E= 0.
 FoFCou: FMM=F IPFlag=           0 FMFlag=      100000 FMFlg1=         800
         NFxFlg=           0 DoJE=F BraDBF=F KetDBF=F FulRan=T
         wScrn=  0.000000 ICntrl=  100127 IOpCl=  0 I1Cent=           0 NGrid=           0
         NMat0=    1 NMatS0=      1 NMatT0=    0 NMatD0=    1 NMtDS0=    0 NMtDT0=    0
 Symmetry not used in FoFCou.
 Leave Link  703 at Wed Oct 19 23:03:08 2011, MaxMem=  128000000 cpu:     271.1
 (Enter /home/foresman/gdv/l716.exe)
 Dipole        = 9.26046700D-01 1.17523769D+00-2.99022814D-01
 Polarizability= 1.29335995D+02 3.54911824D+00 9.60104858D+01
                -1.26351450D+00 1.87728760D+00 8.55486660D+01
 AAT           =-2.30174753D-02-5.42627118D-02-1.74477158D-01
                -1.67020212D-02 4.61054936D-03-3.71251135D-01
                 1.07969614D-01 3.62095870D-01 1.84120356D-03
                 7.34267783D-03-1.08712816D-02 1.60810369D-01
                 1.70638064D-02-1.77450613D-02 1.88531753D-01
                -1.04481836D-01-2.33594207D-02 1.11514548D-02
                 4.96893870D-02 1.74778203D-01-1.39291755D-01
                -1.38682340D-01-1.18369123D-01 2.00741440D-01
                 2.66273126D-02-2.26747352D-01 9.44936602D-02
                -6.19947247D-02-1.71094471D-01-1.67591864D-01
                 1.59123959D-01 1.23090613D-01 2.00815399D-01
                 5.50359736D-02-1.76166653D-01-6.86124855D-02
                 9.13044404D-03 9.47962122D-02 3.77789611D-01
                 2.17495535D-03-3.83733211D-02 2.34405616D-01
                -5.62950921D-01-4.31022928D-01-3.50156409D-03
                 7.14834681D-02-2.92461988D-01 7.10750646D-01
                 1.49224975D-01-3.47054840D-02 3.04104865D-01
                -2.46024021D-01 8.95697040D-02-4.50640679D-02
                 2.81474738D-03 1.45079438D-01-1.09838485D+00
                -1.67692068D-01 7.43267795D-02-1.54875675D-01
                 1.07214462D+00-2.50150543D-01-4.31273069D-02
                -5.84469646D-02 2.39627633D-01-2.74115233D-01
                -1.27397259D-01 1.14485694D-01-4.48422912D-01
                -3.14390534D-03 4.10866569D-01 1.71416187D-02
                 2.86642635D-03-1.28874030D-01-2.77603123D-02
                 1.29060945D-01-7.27336757D-02 2.67145619D-01
                -5.26450199D-03-1.83149133D-01 5.05637860D-02
                 6.64654753D-02 1.01236281D-01 1.61943717D-01
                -1.59989341D-01-1.74734214D-01-2.55800600D-01
                -7.62130077D-02 1.45559534D-02-1.65547381D-02
                -1.77034022D-02-1.07808938D-01-1.34262825D-03
                -1.54709129D-01-1.36137356D-02 4.96435447D-01
                -1.72654644D-01-8.56434177D-01 9.13611400D-02
                -1.28512063D-02 8.16358193D-02-5.56907744D-02
                -5.35401526D-02-9.34431783D-04 1.08563252D-01
                 1.00253786D-01-2.42273777D-01 1.25377949D-01
                -1.43231784D-01-2.52542631D-01 3.80881071D-01
                 5.63064290D-01 1.26078342D-01-8.16469690D-01
                 6.92531618D-02 1.36525289D+00-5.55757348D-02
                 1.94836364D-01 1.02977528D-01-4.72727737D-01
                -1.22300135D-01-7.00499839D-02 4.29279364D-01
                 1.35577462D-01-6.24421467D-01-1.17636113D-02
                 2.26756595D-02 2.75674307D-02 1.67219649D-01
                -2.11799801D-02-9.18714578D-04-2.27408226D-01
                 4.74048612D-02 2.70119209D-01-1.94997030D-02
                -6.74756235D-02 2.31595749D-02-3.26061250D-02
                -1.91125311D-01-1.04876801D-01 7.63836676D-02
                -2.29062943D-02-1.86813527D-01 2.15344844D-01
                 4.39041875D-02-5.75016479D-02-8.96179576D-02
                 2.12798577D-01 1.20396205D-01 8.44186160D-02
                -3.71527040D-02-1.46808728D-01-2.13863780D-01
                -2.43018670D-02 1.56778544D-01-2.23580659D-03
                 2.35584029D-02 1.37011622D-02-2.71633705D-01
                -2.16677291D-02 2.12759819D-01 1.08009221D-02
                -4.19213789D-02-9.27570612D-02-3.15123071D-02
                 6.28745570D-02 2.01589198D-01 4.33059921D-02
                 1.97471436D-01-1.92880417D-01-1.10254210D-01
                -3.49482017D-02-6.20312752D-02 2.39034421D-01
                -3.31582007D-02-7.85661242D-02 1.57932474D-01
                -1.96714843D-01 1.03608069D-02 1.36270807D-01
                 1.25378127D-02-8.46854435D-02-2.32428114D-02
                -5.82949376D-02-4.94752405D-03-2.63173857D-01
                -3.41945564D-02 2.32412266D-01-9.43602806D-03
                 4.64598555D-02 1.00871172D-02 2.12553534D-01
                 8.81951468D-02 4.27463975D-02 1.69102247D-01
                -2.22047168D-01 4.07434916D-02-1.13175373D-01
                 6.67986972D-02 4.85462857D-02-1.76819620D-02
                -8.17400912D-02-1.71959844D-01 1.98131766D-02
                 1.83024981D-01-2.30581589D-01 5.10027214D-02
                 4.05463462D-02 2.09877633D-01-9.54702983D-02
                -1.70020881D-01-2.69880857D-02 2.15072979D-02
                -1.40577561D-01 6.03901662D-02-8.31554504D-02
                -4.90303294D-02-9.75247418D-02-6.16759840D-02
                 1.00756427D-01-2.27336221D-02-1.44883124D-01
                 3.38106886D-02 5.22235120D-02 1.35161461D-01
                 2.67238627D-03-1.36555282D-01 2.70753511D-02
                 1.32673927D-01 1.81660117D-02 5.75934878D-02
                -1.23221422D-01 2.23152413D-01 1.78478290D-03
                -4.84138062D-02 1.25166446D-01-1.93473461D-01
                -1.29061000D-01 8.65072557D-02 4.48815244D-02
[...]
 003716,0.00004099,0.00003068,-0.00003632,0.00000820,0.00011132,0.00002
 257,-0.00000421,-0.00001465,-0.00002082,-0.00001557,0.00003623,0.00001
 788,0.00003132,0.00000709,-0.00002587,0.00013780,-0.00000399,-0.000026
 10,0.00001772,0.00004351,-0.00004423,0.00006945,-0.00016169,-0.0000100
 2,0.00002502,0.00008259,-0.02341735,0.13046207,0.00005808,0.00013721,-
 0.00026300,0.00000501,-0.00003028,-0.00001065,-0.00001578,-0.00006699,
 0.00005418,-0.00001374,-0.00001796,0.00000720,-0.00050055,-0.00060373,
 0.00064739,0.00036280,0.00084646,0.00036478,-0.00038434,-0.00027674,-0
 .00046614,0.00129309,0.00284169,0.00954389,0.02692151,-0.11346178,-0.2
 3685197,0.00223906,-0.01233740,-0.02452962,-0.00054251,-0.00181573,-0.
 00157622,0.00023580,0.00010904,-0.00075659,-0.00229997,-0.00013317,0.0
 0222352,0.00044805,0.00032509,-0.00020835,-0.00001422,0.00000429,0.000
 00834,-0.00000159,0.00000280,0.00003647,0.00000600,-0.00000443,-0.0000
 1114,0.00000187,-0.00003414,-0.00000284,0.00000556,0.00001587,-0.00000
 081,-0.00001265,0.00004144,0.00000221,0.00000833,-0.00000189,0.0000121
 9,-0.00001189,0.00000221,-0.00002307,-0.00000092,0.00000355,0.00001438
 ,-0.02950446,0.12224317,0.25708171,0.00050824,0.00019129,-0.00008536,0
 .00000005,0.00003872,-0.00006260,-0.00005813,-0.00001924,0.00003983,-0
 .00005234,-0.00016629,0.00008192,0.00258979,0.00004965,0.00038172,-0.0
 0286770,-0.00463234,0.00252674,-0.00008889,0.00132437,-0.00024285,-0.0
 2880783,-0.01037037,-0.00118278,-0.19865208,-0.13113446,-0.03197910,0.
 00098673,0.00023673,0.00051691,-0.00057424,0.00126421,-0.00057966,-0.0
 0192924,0.00060843,-0.00315666,0.00044957,0.00005365,-0.00013539,-0.00
 000901,-0.00010407,0.00000175,0.00001008,-0.00001110,0.00001395,0.0000
 0640,0.00000753,-0.00000052,0.00004158,0.00002012,0.00000498,0.0000401
 1,-0.00002267,0.00000568,0.00003201,0.00004492,0.00002007,-0.00000059,
 -0.00009285,-0.00000971,0.00005743,0.00000962,0.00004482,0.00002277,-0
 .00002900,0.00003333,-0.00001377,0.00000574,0.00000078,0.00499515,0.00
 192863,0.00042734,0.22433791,-0.00001349,-0.00057204,-0.00004683,0.000
 04233,0.00003801,0.00006721,0.00005559,-0.00006397,0.00005400,0.000032
 32,0.00015703,-0.00007673,-0.00003762,-0.00189576,0.00132977,0.0007598
 3,0.00276132,-0.00055848,0.00022603,-0.00089010,-0.00037796,0.01956160
 ,0.01119634,0.00343772,-0.13856135,-0.16446378,-0.03270423,-0.01389366
 ,-0.01072797,-0.00457309,0.00039067,-0.00195937,0.00284644,0.00251348,
 -0.00133367,0.00099707,-0.00037853,0.00035235,0.00032702,0.00013408,0.
 00016927,-0.00000595,0.00000350,-0.00000511,-0.00002601,-0.00000872,-0
 .00001454,-0.00002832,-0.00005079,-0.00002978,0.00001395,-0.00002647,-
 0.00001022,-0.00001980,-0.00001494,-0.00002585,-0.00001565,-0.00000665
 ,0.00002458,-0.00000055,-0.00003542,0.00000489,-0.00005052,0.00001222,
 0.00000015,-0.00000027,-0.00000090,-0.00000840,0.00000777,-0.01287419,
 -0.01053307,-0.00171816,0.14168058,0.17662180,0.00022443,0.00043427,-0
 .00002634,-0.00002842,-0.00000361,-0.00002090,0.00004049,-0.00000797,0
 .00004684,0.00000519,-0.00018197,0.00005238,0.00100104,0.00050274,-0.0
 0127822,-0.00138687,-0.00212890,0.00210313,0.00007753,0.00058999,-0.00
 023252,-0.00217571,0.00229783,-0.00014485,-0.03105953,-0.03197547,-0.0
 5735098,0.02158417,0.01576065,0.00351922,0.00177516,0.00241613,-0.0048
 0737,0.00066285,0.00089067,-0.00121634,-0.00126579,-0.00018593,0.00116
 106,0.00018986,0.00002110,-0.00011487,0.00003636,-0.00005674,0.0000295
 0,-0.00000599,0.00000253,-0.00012377,0.00004992,0.00011938,0.00004837,
 0.00001188,-0.00002270,-0.00001608,-0.00002250,0.00001117,0.00001227,0
 .00001967,-0.00003109,-0.00000620,0.00003882,0.00000059,0.00006463,0.0
 0001462,-0.00001852,0.00002260,-0.00002860,-0.00000490,-0.00001250,-0.
 02250089,-0.01978211,-0.00380744,0.03166721,0.03170299,0.06040930,0.00
 002202,0.00008772,-0.00008367,0.00000509,-0.00000385,0.00001843,0.0000
 0708,-0.00002352,0.00002100,0.00000043,-0.00001407,0.00001427,-0.00014
 342,-0.00011013,0.00005048,-0.00001612,0.00041353,-0.00023844,0.000159
 00,-0.00014353,0.00007242,0.00024203,-0.00007117,-0.00002770,-0.000656
 63,0.00385314,0.01059412,-0.05540119,-0.01092640,-0.02605731,-0.000797
 62,-0.01664759,-0.02956738,0.00085912,-0.00018034,0.00010771,-0.007191
 41,-0.00267916,-0.00403036,-0.00036260,0.00042334,0.00042830,-0.000004
 58,-0.00000696,0.00000151,0.00000441,0.00000376,-0.00000854,0.00000042
 ,0.00000046,-0.00000373,-0.00000233,-0.00001213,-0.00000004,0.00000092
 ,0.00000198,-0.00000361,-0.00000355,0.00002009,-0.00000397,0.00000058,
 -0.00000700,0.00000767,-0.00000602,0.00000762,-0.00001882,-0.00000307,
 0.00000244,-0.00000671,0.00044275,-0.00191944,0.00150029,0.00020057,0.
 00052667,-0.00003447,0.05895624,0.00000449,-0.00002824,0.00002408,0.00
 000237,0.00000989,0.00000482,0.00000460,0.00000286,0.00000806,-0.00000
 343,0.00000672,-0.00000298,0.00015080,0.00000294,-0.00012972,-0.000186
 85,-0.00036562,0.00016375,-0.00003497,0.00013291,-0.00001286,-0.001359
 88,0.00081813,-0.00117204,0.00246766,0.01004842,0.02265505,-0.01196281
 ,-0.11404857,-0.11216049,0.00120002,-0.00718645,-0.00912994,0.00032056
 ,0.00035772,0.00010409,-0.00358010,-0.00008027,-0.00132229,0.00025614,
 0.00101610,0.00035698,0.00000253,-0.00000277,-0.00000403,0.00000379,-0
 .00000103,-0.00001138,-0.00000446,0.00000004,0.00000272,0.00000131,0.0
 0000244,-0.00000949,-0.00000798,-0.00000934,-0.00000033,0.00000575,-0.
 00001787,0.00000337,0.00000184,-0.00000038,-0.00000382,0.00000324,-0.0
 0000521,0.00001027,-0.00000151,-0.00000250,-0.00000828,-0.00013796,-0.
 00221518,0.00353797,0.00010853,0.00141311,-0.00068402,0.01724234,0.123
 18325,-0.00002847,-0.00008555,0.00001199,-0.00000403,-0.00000246,-0.00
 002199,-0.00001427,0.00001870,-0.00002042,0.00000568,0.00001199,-0.000
 01235,-0.00012012,0.00016419,0.00012123,0.00001723,-0.00001737,-0.0002
 9761,-0.00012182,0.00012545,-0.00000089,0.00064956,0.00015721,0.002113
 24,-0.00155964,-0.01303809,-0.02526836,-0.02649936,-0.11131483,-0.2442
 9119,0.00119700,-0.00048181,-0.00310293,0.00006750,-0.00029367,-0.0003
 7873,-0.00063803,-0.00012380,0.00143615,0.00013431,0.00016899,-0.00007
 082,0.00000006,0.00001298,-0.00000094,-0.00001223,-0.00000013,0.000027
 76,0.00000544,-0.00000646,0.00000051,0.00000074,0.00000816,0.00001175,
 0.00001972,0.00001120,0.00000517,-0.00000980,-0.00000366,-0.00000918,-
 0.00000215,0.00001186,-0.00000584,0.00000337,-0.00000661,0.00000093,-0
 .00000140,0.00000308,0.00002525,0.00015137,0.00373442,-0.00247658,0.00
 048347,-0.00017969,0.00142072,0.02706099,0.12037276,0.26929855,0.00000
 673,-0.00008496,0.00007132,-0.00000332,0.00001753,-0.00000849,-0.00000
 755,0.00002412,-0.00001147,-0.00000871,0.00001560,-0.00000832,0.000221
 47,0.00015672,-0.00017939,0.00019051,-0.00006969,0.00020042,0.00026284
 ,0.00007313,-0.00011396,-0.00061516,-0.00165159,0.00175470,0.00489525,
 -0.00739750,-0.00034253,-0.14185782,0.12738873,0.00253088,-0.01993807,
 0.02821661,0.00003969,-0.00504472,-0.00262575,-0.00138728,0.00414082,0
 .00016105,0.00196525,-0.00066549,-0.00168729,-0.00085738,0.00000594,0.
 00000507,-0.00000495,-0.00000058,-0.00000280,0.00000179,-0.00000053,-0
 .00000297,0.00000156,0.00000465,0.00001087,-0.00000224,0.00000113,-0.0
 0000280,0.00000155,0.00000656,-0.00001919,-0.00000082,0.00000360,0.000
 00612,-0.00000898,0.00000866,-0.00001175,0.00001789,0.00000099,-0.0000
 0333,0.00000134,0.00044403,0.00056146,-0.00067317,-0.00019577,0.000073
 85,-0.00035062,0.00301637,-0.00461012,0.00040871,0.15507061,0.00009339
 ,0.00033868,-0.00025755,0.00000764,-0.00004252,0.00002360,0.00000536,-
 0.00007652,0.00004459,0.00000637,-0.00007478,0.00004709,-0.00043039,-0
 .00051093,0.00042155,0.00070645,0.00172151,-0.00067647,0.00054754,-0.0
 0082487,0.00020593,-0.00045087,-0.00277260,0.00395520,0.01291661,-0.01
 400466,-0.00475478,0.12600089,-0.21900733,-0.00382467,-0.00795931,0.00
 688968,-0.00132515,-0.00309090,-0.00041786,-0.00081949,0.00010667,0.00
 194749,0.00150878,0.00048044,0.00020591,0.00027424,-0.00001839,-0.0000
 1343,0.00001568,0.00000941,0.00001311,0.00000136,0.00001279,0.00000564
 ,-0.00001435,-0.00000727,-0.00004008,0.00000847,0.00000005,0.00001885,
 -0.00000375,-0.00001238,0.00008945,0.00000328,0.00000492,-0.00001682,0
 .00003427,-0.00002428,0.00002622,-0.00006757,-0.00000678,0.00001194,-0
 .00000456,-0.00010956,0.00137550,0.00016368,-0.00031296,-0.00044978,0.
 00020972,0.00997653,-0.01321114,0.00054352,-0.13940563,0.23808094,-0.0
 0003369,-0.00013469,0.00009091,-0.00000684,0.00002343,-0.00000623,-0.0
 0000888,0.00003096,-0.00001798,-0.00000964,0.00003522,-0.00001654,0.00
 017967,0.00017355,-0.00016472,-0.00127505,-0.00060987,0.00038876,-0.00
 034743,0.00077406,-0.00031241,-0.00048071,0.00469535,-0.00321971,-0.01
 580554,0.01767121,0.00126374,0.00503366,-0.00471028,-0.04957854,-0.002
 04895,0.00044967,-0.00170702,-0.00007099,0.00115350,-0.00070616,0.0001
 3546,0.00102425,0.00001219,-0.00066769,-0.00051290,0.00027942,0.000009
 59,0.00000248,-0.00000562,-0.00000191,-0.00000361,-0.00000249,-0.00000
 113,-0.00000194,0.00000356,0.00000455,0.00001420,0.00000159,0.00000970
 ,-0.00000104,0.00000035,-0.00000117,-0.00004201,-0.00001040,-0.0000001
 5,0.00000442,-0.00001458,0.00001239,-0.00000981,0.00003602,0.00000599,
 -0.00000390,-0.00000157,-0.00038233,-0.00085540,0.00069697,0.00040109,
 0.00018101,0.00004629,0.01887028,-0.02355280,0.00064843,-0.00311608,0.
 00423973,0.05212878,0.00011852,0.00003999,-0.00006288,-0.00000936,0.00
 002201,-0.00001607,0.00000262,-0.00002451,0.00000778,0.00000464,-0.000
 02127,0.00001751,0.00015735,0.00005167,-0.00007531,0.00057436,0.000267
 49,-0.00010992,0.00027948,-0.00015336,0.00003877,-0.00154652,0.0030475
 4,-0.00149146,-0.00663817,-0.00096753,-0.00200266,-0.01199222,-0.01586
 991,0.02536526,-0.09916132,-0.04563537,0.08684552,0.00715536,0.0071650
 6,-0.01224295,0.00593292,0.00261640,-0.00557854,-0.00025715,0.00013043
 ,0.00061976,0.00001485,-0.00001144,0.00000543,0.00000211,0.00000136,-0
 .00001942,0.00001082,0.00001864,0.00000533,0.00000016,-0.00001061,0.00
 000221,-0.00000072,0.00001030,0.00000415,0.00000020,0.00000519,0.00000
 194,0.00000172,-0.00000523,0.00000927,-0.00000160,0.00000080,-0.000006
 40,-0.00000456,0.00000119,-0.00000770,0.00009976,-0.00006721,0.0001651
 3,0.00018068,-0.00081542,0.00129833,0.00108955,0.00002538,-0.00062633,
 0.00042361,0.00097129,0.00008150,0.10292610,-0.00001981,0.00038868,-0.
 00024141,0.00001689,-0.00008252,0.00004703,0.00000612,-0.00007201,0.00
 005609,0.00000678,-0.00008995,0.00004684,-0.00043764,-0.00098573,0.000
 79293,-0.00129193,0.00095461,-0.00063195,0.00036203,-0.00035372,0.0001
 8063,0.00146753,-0.00473206,0.00293555,-0.00047988,-0.00122174,0.00004
 775,-0.00031976,-0.00124909,0.00446319,-0.04342236,-0.09776689,0.08977
 161,-0.01351596,-0.00938428,0.01877331,0.00794154,0.00662930,-0.027088
 23,0.00023457,0.00183526,0.00003328,-0.00003141,-0.00001786,0.00002090
 ,0.00000673,0.00001148,-0.00000943,0.00000924,0.00001299,-0.00000865,-
 0.00000283,-0.00004289,0.00000007,-0.00000599,0.00001456,-0.00000210,-
 0.00000388,0.00006579,0.00000048,0.00000784,-0.00001486,0.00004103,-0.
 00001987,0.00002709,-0.00005845,-0.00001011,0.00001022,-0.00000583,-0.
 00034422,-0.00003506,0.00020287,-0.00015368,-0.00022736,0.00019889,-0.
 00006862,-0.00002441,-0.00006021,-0.00065797,0.00018149,-0.00024494,0.
 05040383,0.10636731,-0.00000528,-0.00018581,0.00006238,-0.00000104,0.0
 0001957,-0.00001594,-0.00000353,0.00002300,-0.00000445,0.00000057,0.00
 002399,-0.00002401,0.00013732,0.00020930,-0.00015077,0.00018236,-0.000
 48194,0.00033678,-0.00010675,0.00017267,-0.00003493,-0.00133501,0.0008
 0377,0.00052143,-0.00163233,-0.00077978,0.00061815,-0.00345181,-0.0017
 1419,0.00566048,0.08632920,0.08907547,-0.20654044,0.00510314,0.0023573
 5,-0.00514255,0.00653368,-0.00137308,-0.03154226,0.00014050,0.00036516
 ,0.00075034,0.00000719,0.00000792,-0.00000621,-0.00000815,-0.00000221,
 0.00000771,-0.00000006,-0.00000392,0.00000546,0.00000337,0.00001129,-0
 .00000352,0.00000570,-0.00000308,0.00000386,0.00000019,-0.00003140,-0.
 00000297,0.00000154,0.00001355,-0.00001201,0.00001231,-0.00001955,0.00
 001956,-0.00000610,-0.00000185,0.00001625,-0.00044007,-0.00024473,0.00
 027126,0.00003090,-0.00021814,0.00031331,0.00126082,0.00071657,0.00059
 183,0.00022119,0.00012994,-0.00003891,-0.09260071,-0.08903394,0.233448
 00,0.00007287,0.00037909,-0.00015155,0.00000803,-0.00004863,0.00002731
 ,0.00000840,-0.00004931,0.00004585,0.00001364,-0.00010142,0.00005106,-
 0.00049192,-0.00061384,0.00069246,-0.00255262,0.00405119,-0.00265823,0
 .00238715,-0.00053081,0.00026974,-0.02397263,-0.00794991,-0.00630915,-
 0.00057444,-0.00268489,-0.00145621,-0.00086865,0.00093090,0.00021132,-
 0.00992281,0.00000958,-0.00755085,-0.19261443,-0.03104055,-0.12880749,
 0.00039444,-0.00117658,-0.00054017,0.00092428,-0.00079277,0.00063665,-
 0.00001707,-0.00001901,0.00001707,0.00000150,0.00000831,-0.00001069,0.
 00001898,0.00002142,-0.00000271,-0.00000771,-0.00004075,0.00000187,-0.
 00000396,0.00002222,0.00000395,0.00000350,0.00007209,-0.00000693,0.000
 01909,0.00000257,0.00004763,-0.00000981,-0.00000010,-0.00006142,-0.000
 03101,0.00000857,0.00001381,-0.00012265,0.00012970,0.00015966,-0.00108
 186,0.00059556,0.00007323,-0.00000136,-0.00006326,-0.00009671,-0.00028
 325,-0.00003131,-0.00019753,-0.00017201,0.00071302,-0.00001223,0.21870
 014,0.00002332,0.00019090,0.00004198,0.00000205,-0.00001667,0.00001323
 ,-0.00002427,0.00004158,0.00000629,-0.00003003,-0.00005674,0.00005523,
 0.00005179,-0.00026020,0.00074628,-0.00521313,0.00399791,-0.00251605,0
 .00378129,0.00028913,-0.00002061,-0.01695495,-0.00677551,-0.00410416,-
 0.00028585,-0.00232629,-0.00044313,0.00232262,-0.00492526,0.00029046,0
 .02579671,0.00346702,0.01998837,-0.03086112,-0.05253961,-0.02964858,-0
 .00129430,0.00208513,0.00078689,-0.00075025,0.00072311,-0.00022728,-0.
 00000738,-0.00000510,0.00000275,0.00000550,-0.00000116,-0.00000619,0.0
 0001134,0.00000743,-0.00000194,0.00001956,-0.00000347,-0.00000488,0.00
 001526,0.00001326,0.00000541,0.00001994,-0.00004770,-0.00002547,0.0000
 2152,0.00000439,0.00002736,-0.00000961,-0.00001963,0.00000814,-0.00000
 625,0.00000133,-0.00000068,0.00015564,-0.00003960,0.00000205,-0.000551
 83,0.00041205,-0.00015862,-0.00024501,-0.00009275,0.00007059,0.0014029
 1,0.00063885,0.00000894,-0.00032285,-0.00031195,-0.00024381,0.03619525
 ,0.05737001,-0.00006358,-0.00027995,0.00001979,-0.00000784,0.00002250,
 -0.00001464,-0.00000797,-0.00000502,-0.00001178,-0.00000371,0.00007530
 ,-0.00005480,0.00050653,-0.00003968,-0.00083829,0.00117135,-0.00132954
 ,0.00250484,-0.00059017,0.00013315,-0.00088842,0.01808950,0.00603484,0
 .01196657,0.00114181,0.00153374,-0.00038787,0.00009020,0.00143605,-0.0
 0051184,-0.00765732,-0.00216228,-0.00725126,-0.13403454,-0.02893903,-0
 .16730960,0.00186459,-0.00166466,0.00033601,0.00039597,-0.00057969,0.0
 0000671,0.00000883,0.00000920,-0.00000462,-0.00000239,-0.00000087,0.00
 000600,-0.00000662,-0.00000854,0.00000237,-0.00000561,0.00000864,0.000
 00276,0.00000452,-0.00000704,-0.00000455,-0.00001441,0.00001282,-0.000
 00015,-0.00001284,-0.00000252,-0.00003262,0.00001585,0.00001035,0.0000
 2922,0.00002138,-0.00000422,-0.00000775,0.00002505,-0.00008000,-0.0000
 4854,0.00065870,-0.00032926,-0.00000616,0.00030261,0.00006102,0.000056
 87,-0.00026125,-0.00005092,0.00020545,-0.00003688,0.00035681,-0.000085
 68,0.13839937,0.02866042,0.17973887,0.00003909,0.00039295,-0.00054464,
 0.00002214,-0.00007382,0.00004771,0.00002239,-0.00015250,0.00011219,0.
 00001257,-0.00008486,0.00003699,-0.00098410,-0.00118508,0.00065276,-0.
 00137078,0.00478690,-0.00156779,0.00151832,-0.00139048,0.00043230,-0.0
 1731609,0.00364493,0.02461932,0.00002361,-0.00074283,0.00248894,0.0003
 5477,-0.00048464,0.00038104,-0.00386862,0.00519666,0.00987005,-0.07482
 415,0.04427658,0.05984470,-0.00050486,0.00121815,-0.00119466,0.0003645
 2,-0.00010055,0.00070287,-0.00003060,-0.00002206,0.00002572,0.00001112
 ,0.00001397,-0.00001957,0.00000766,0.00001265,-0.00000878,-0.00000752,
 -0.00007251,-0.00002185,-0.00003324,0.00000837,-0.00000298,-0.00000026
 ,0.00010266,0.00002302,0.00000125,-0.00001947,0.00004836,-0.00002602,0
 .00004151,-0.00010345,-0.00002069,0.00001287,-0.00001066,-0.00095029,0
 .00048271,0.00013821,-0.00012762,0.00010987,0.00008863,-0.00041667,0.0
 0015199,-0.00047075,-0.00008277,0.00001369,-0.00028817,0.00080883,-0.0
 0039019,-0.00036691,0.01017617,-0.01326788,-0.01999114,0.08720184,-0.0
 0006006,0.00010597,-0.00037759,0.00001211,-0.00004750,0.00002587,-0.00
 001337,-0.00010308,0.00007257,-0.00000830,-0.00000258,-0.00001929,-0.0
 0067324,-0.00109038,0.00005949,-0.00223155,0.00353873,-0.00032261,0.00
 141551,-0.00021152,-0.00073097,-0.01218687,0.00864544,0.02048261,0.000
 45739,-0.00144977,0.00156999,-0.00027371,0.00037957,0.00013436,0.00508
 739,-0.01191914,-0.02570499,0.04572948,-0.11816664,-0.10754355,0.00354
 938,-0.00542745,0.00154913,0.00035229,-0.00140613,-0.00121602,-0.00001
 702,-0.00000786,0.00001612,0.00000613,0.00000731,-0.00000854,0.0000082
 9,0.00000547,-0.00000084,0.00000411,-0.00004496,-0.00002003,-0.0000129
 4,0.00000535,0.00000073,-0.00000681,0.00000730,0.00001980,0.00001216,-
 0.00000519,0.00000642,0.00002304,-0.00000465,0.00001763,-0.00000224,0.
 00000205,-0.00001041,-0.00046837,0.00029391,0.00002298,0.00002813,0.00
 005986,0.00008390,0.00049930,0.00029719,0.00019921,0.00011957,-0.00008
 196,0.00020121,-0.00087386,0.00011359,0.00040790,0.00200365,-0.0018204
 4,-0.00287162,-0.04247958,0.12832750,-0.00000226,-0.00034901,0.0003549
 1,-0.00001203,0.00006884,-0.00003412,0.00001219,0.00011427,-0.00007703
 ,0.00001445,0.00005965,-0.00001794,0.00041407,0.00110096,-0.00066729,0
 .00345810,-0.00473775,0.00123545,-0.00258148,0.00052929,0.00082093,0.0
 1280887,0.00338929,-0.00954255,-0.00147379,0.00041616,-0.00198728,0.00
 016042,-0.00017445,-0.00050826,-0.00448020,0.00558669,0.00833113,0.059
 35648,-0.10804424,-0.21600327,-0.00103739,0.00172483,0.00036643,0.0001
 5742,0.00056166,0.00072256,0.00002537,0.00001805,-0.00002086,-0.000019
 24,-0.00000733,0.00002284,-0.00000457,-0.00001296,0.00000751,-0.000005
 83,0.00005294,0.00002448,0.00002736,-0.00000506,0.00000387,-0.00000348
 ,-0.00005133,-0.00003128,-0.00000680,0.00002402,-0.00003445,0.00000631
 ,-0.00004895,0.00003673,-0.00000607,-0.00000458,0.00003395,0.00051532,
 -0.00038668,0.00006846,0.00009345,-0.00003531,-0.00008508,-0.00022616,
 0.00018296,0.00018743,0.00011066,-0.00003138,0.00000043,0.00040938,-0.
 00058416,0.00097787,0.00721091,-0.01331297,-0.01741691,-0.07492147,0.1
 1395655,0.23323133\\0.00000121,0.00000004,0.00000158,-0.00000035,0.000
 00075,0.00000152,0.00000168,0.00000025,0.00000260,0.00000072,0.0000026
 3,0.00000206,0.00000101,0.00000079,0.00000110,-0.00000124,0.00000019,0
 .00000031,0.00000117,0.00000073,0.00000131,0.00000002,-0.00000060,-0.0
 0000073,-0.00000080,-0.00000161,-0.00000166,-0.00000133,-0.00000217,-0
 .00000297,-0.00000048,-0.00000226,-0.00000317,-0.00000091,0.00000015,-
 0.00000060,-0.00000149,-0.00000028,-0.00000221,-0.00000243,0.00000013,
 -0.00000442,0.00000117,0.00000122,0.00000215,0.00000016,0.00000100,0.0
 0000053,0.00000095,-0.00000050,0.00000136,0.00000172,0.00000111,0.0000
 0374,0.00000160,-0.00000092,0.00000261,0.00000142,0.00000054,0.0000031
 7,0.00000043,0.00000335,0.00000246,0.00000018,0.00000278,0.00000179,-0
 .00000032,0.00000317,0.00000103,-0.00000096,-0.00000022,-0.00000240,-0
 .00000008,-0.00000184,-0.00000122,-0.00000027,-0.00000310,-0.00000193,
 -0.00000123,-0.00000243,-0.00000339,-0.00000115,-0.00000181,-0.0000027
 3,-0.00000058,0.00000017,-0.00000117,0.00000015,-0.00000128,-0.0000007
 0\\\@
 The archive entry for this job was punched.


 Democracy is the recurrent suspicion that more than half of the people
 are right more than half of the time.
 -- E. B. White
 Job cpu time:  0 days  0 hours 16 minutes 23.3 seconds.
 File lengths (MBytes):  RWF=    113 Int=      0 D2E=      0 Chk=      3 Scr=      1
 Normal termination of Gaussian DV at Wed Oct 19 23:03:08 2011.
