 Entering Gaussian System, Link 0=gdv
 Input=tua.gjf
 Output=tua.log
 Initial command:
 /home/foresman/gdv/l1.exe /tmp/Gau-25371.inp -scrdir=/tmp/
 Default is to use a total of   8 processors:
                                8 via shared-memory
                                1 via Linda
 Entering Link 1 = /home/foresman/gdv/l1.exe PID=     25372.
  
 Copyright (c) 1988,1990,1992,1993,1995,1998,2003,2009,2011,
            Gaussian, Inc.  All Rights Reserved.
  
 This is the private, development version of
 the Gaussian(R) DV system of programs. It is based on
 the Gaussian(R) 09 system (copyright 2009, Gaussian, Inc.),
 the Gaussian(R) 03 system (copyright 2003, Gaussian, Inc.),
 the Gaussian(R) 98 system (copyright 1998, Gaussian, Inc.),
 the Gaussian(R) 94 system (copyright 1995, Gaussian, Inc.),
 the Gaussian 92(TM) system (copyright 1992, Gaussian, Inc.),
 the Gaussian 90(TM) system (copyright 1990, Gaussian, Inc.),
 the Gaussian 88(TM) system (copyright 1988, Gaussian, Inc.),
 the Gaussian 86(TM) system (copyright 1986, Carnegie Mellon
 University), and the Gaussian 82(TM) system (copyright 1983,
 Carnegie Mellon University). Gaussian is a federally registered
 trademark of Gaussian, Inc.
  
 This software contains proprietary and confidential information,
 including trade secrets, belonging to Gaussian, Inc.
  
 This software is provided under written license and may be
 used, copied, transmitted, or stored only in accord with that
 written license.
  
 The following legend is applicable only to US Government
 contracts under FAR:
  
                    RESTRICTED RIGHTS LEGEND
  
 Use, reproduction and disclosure by the US Government is
 subject to restrictions as set forth in subparagraphs (a)
 and (c) of the Commercial Computer Software - Restricted
 Rights clause in FAR 52.227-19.
  
 Gaussian, Inc.
 340 Quinnipiac St., Bldg. 40, Wallingford CT 06492
  
  
 ---------------------------------------------------------------
 Warning -- This program may not be used in any manner that
 competes with the business of Gaussian, Inc. or will provide
 assistance to any competitor of Gaussian, Inc.  The licensee
 of this program is prohibited from giving any competitor of
 Gaussian, Inc. access to this program.  By using this program,
 the user acknowledges that Gaussian, Inc. is engaged in the
 business of creating and licensing software in the field of
 computational chemistry and represents and warrants to the
 licensee that it is not a competitor of Gaussian, Inc. and that
 it will not use this program in any manner prohibited above.
 ---------------------------------------------------------------
  

 Cite this work as:
 Gaussian Development Version, Revision H.13,
 M. J. Frisch, G. W. Trucks, H. B. Schlegel, G. E. Scuseria, 
 M. A. Robb, J. R. Cheeseman, G. Scalmani, V. Barone, B. Mennucci, 
 G. A. Petersson, H. Nakatsuji, M. Caricato, X. Li, H. P. Hratchian, 
 A. F. Izmaylov, J. Bloino, G. Zheng, J. L. Sonnenberg, W. Liang, 
 M. Hada, M. Ehara, K. Toyota, R. Fukuda, J. Hasegawa, M. Ishida, 
 T. Nakajima, Y. Honda, O. Kitao, H. Nakai, T. Vreven, 
 J. A. Montgomery, Jr., J. E. Peralta, F. Ogliaro, M. Bearpark, 
 J. J. Heyd, E. Brothers, K. N. Kudin, V. N. Staroverov, T. Keith, 
 R. Kobayashi, J. Normand, K. Raghavachari, A. Rendell, J. C. Burant, 
 S. S. Iyengar, J. Tomasi, M. Cossi, N. Rega, J. M. Millam, M. Klene, 
 J. E. Knox, J. B. Cross, V. Bakken, C. Adamo, J. Jaramillo, 
 R. Gomperts, R. E. Stratmann, O. Yazyev, A. J. Austin, R. Cammi, 
 C. Pomelli, J. W. Ochterski, R. L. Martin, K. Morokuma, 
 V. G. Zakrzewski, G. A. Voth, P. Salvador, J. J. Dannenberg, 
 S. Dapprich, P. V. Parandekar, N. J. Mayhall, A. D. Daniels, 
 O. Farkas, J. B. Foresman, J. V. Ortiz, J. Cioslowski, 
 and D. J. Fox, Gaussian, Inc., Wallingford CT, 2010.
 
 ******************************************
 Gaussian DV:  EM64L-GDVRevH.13 30-Sep-2011
                19-Oct-2011 
 ******************************************
 %chk=tua
 %nprocshared=8
 Will use up to    8 processors via shared memory.
 Default route:  maxdisk=400GB
 ------------------------------------
 #p B3LYP/3-21G freq=vcd Geom=Connect
 ------------------------------------
 1/10=4,30=1,38=1,57=2/1,3;
 2/12=2,17=6,18=5,40=1/2;
 3/5=5,11=2,16=1,25=1,30=1,36=2,71=2,74=-5,140=1/1,2,3;
 4//1;
 5/5=2,38=5,98=1/2;
 8/6=4,10=90,11=11/1;
 10/15=4,46=1/2;
 11/6=1,8=1,9=11,15=111,16=1/1,2,10;
 10/6=1,46=1/2;
 6/7=2,8=2,9=2,10=2,18=1,28=1/1;
 7/8=1,10=1,25=1/1,2,3,16;
 1/10=4,30=1/3;
 99//99;
 Leave Link    1 at Wed Oct 19 23:03:08 2011, MaxMem=          0 cpu:       0.3
 (Enter /home/foresman/gdv/l101.exe)
 ----------------
 30 -19.825 0.000
 ----------------
 Charge =  0 Multiplicity = 1
 Symbolic Z-Matrix:
 C                    -1.41987  -2.06459  -1.06642 
 C                    -2.91379  -1.78582  -1.27133 
 C                    -0.69665  -2.28634  -2.40399 
 C                    -1.18947  -3.22818  -0.08946 
 O                    -0.94134  -0.78448  -0.44374 
 C                     0.3982   -0.66204  -0.10486 
 O                     1.27636  -1.52201  -0.27433 
 N                     0.61115   0.56233   0.44548 
 C                    -0.42948   1.61145   0.60541 
 C                     0.33091   2.7248    1.35949 
 C                     1.80028   2.54819   0.8915 
 C                     1.95953   1.00683   0.83151 
 O                     2.79401   3.22348   1.6951 
 H                     2.70472   2.87952   2.6263 
 H                    -3.39593  -2.65623  -1.72736 
 H                    -3.38745  -1.57435  -0.30802 
 H                    -3.04311  -0.91772  -1.92448 
 H                    -1.09126  -3.18473  -2.88994 
 H                    -0.86207  -1.42622  -3.06135 
 H                     0.37225  -2.40178  -2.2201 
 H                    -1.5945   -4.15168  -0.51617 
 H                    -0.11954  -3.34029   0.09027 
 H                    -1.69876  -3.02238   0.85792 
 H                    -1.28596   1.2225    1.15909 
 H                    -0.77746   1.95387  -0.37526 
 H                    -0.05674   3.72383   1.1516 
 H                     0.28747   2.54077   2.44081 
 H                     1.91537   2.96403  -0.11251 
 H                     2.2422    0.62621   1.82408 
 H                     2.70076   0.67123   0.10394 
 
 NAtoms=     30 NQM=        0 NQMF=       0 NMMI=     30 NMMIF=      0
                NMic=       0 NMicF=      0.
                    Isotopes and Nuclear Properties:
 (Nuclear quadrupole moments (NQMom) in fm**2, nuclear magnetic moments (NMagM)
  in nuclear magnetons)

  Atom         1           2           3           4           5           6           7           8           9          10
 IAtWgt=          12          12          12          12          16          12          16          14          12          12
 AtmWgt=  12.0000000  12.0000000  12.0000000  12.0000000  15.9949146  12.0000000  15.9949146  14.0030740  12.0000000  12.0000000
 NucSpn=           0           0           0           0           0           0           0           2           0           0
 AtZEff=   0.0000000   0.0000000   0.0000000   0.0000000   0.0000000   0.0000000   0.0000000   0.0000000   0.0000000   0.0000000
 NQMom=    0.0000000   0.0000000   0.0000000   0.0000000   0.0000000   0.0000000   0.0000000   2.0440000   0.0000000   0.0000000
 NMagM=    0.0000000   0.0000000   0.0000000   0.0000000   0.0000000   0.0000000   0.0000000   0.4037610   0.0000000   0.0000000
 AtZNuc=   6.0000000   6.0000000   6.0000000   6.0000000   8.0000000   6.0000000   8.0000000   7.0000000   6.0000000   6.0000000

  Atom        11          12          13          14          15          16          17          18          19          20
 IAtWgt=          12          12          16           1           1           1           1           1           1           1
 AtmWgt=  12.0000000  12.0000000  15.9949146   1.0078250   1.0078250   1.0078250   1.0078250   1.0078250   1.0078250   1.0078250
 NucSpn=           0           0           0           1           1           1           1           1           1           1
 AtZEff=   0.0000000   0.0000000   0.0000000   0.0000000   0.0000000   0.0000000   0.0000000   0.0000000   0.0000000   0.0000000
 NQMom=    0.0000000   0.0000000   0.0000000   0.0000000   0.0000000   0.0000000   0.0000000   0.0000000   0.0000000   0.0000000
 NMagM=    0.0000000   0.0000000   0.0000000   2.7928460   2.7928460   2.7928460   2.7928460   2.7928460   2.7928460   2.7928460
 AtZNuc=   6.0000000   6.0000000   8.0000000   1.0000000   1.0000000   1.0000000   1.0000000   1.0000000   1.0000000   1.0000000

  Atom        21          22          23          24          25          26          27          28          29          30
 IAtWgt=           1           1           1           1           1           1           1           1           1           1
 AtmWgt=   1.0078250   1.0078250   1.0078250   1.0078250   1.0078250   1.0078250   1.0078250   1.0078250   1.0078250   1.0078250
 NucSpn=           1           1           1           1           1           1           1           1           1           1
 AtZEff=   0.0000000   0.0000000   0.0000000   0.0000000   0.0000000   0.0000000   0.0000000   0.0000000   0.0000000   0.0000000
 NQMom=    0.0000000   0.0000000   0.0000000   0.0000000   0.0000000   0.0000000   0.0000000   0.0000000   0.0000000   0.0000000
 NMagM=    2.7928460   2.7928460   2.7928460   2.7928460   2.7928460   2.7928460   2.7928460   2.7928460   2.7928460   2.7928460
 AtZNuc=   1.0000000   1.0000000   1.0000000   1.0000000   1.0000000   1.0000000   1.0000000   1.0000000   1.0000000   1.0000000
 Leave Link  101 at Wed Oct 19 23:03:09 2011, MaxMem=  128000000 cpu:       0.9
 (Enter /home/foresman/gdv/l103.exe)

 GradGradGradGradGradGradGradGradGradGradGradGradGradGradGradGradGradGrad
 Berny optimization.
 Initialization pass.
 Trust Radius=3.00D-01 FncErr=1.00D-07 GrdErr=1.00D-07
 Number of steps in this run=      2 maximum allowed number of steps=      2.
 GradGradGradGradGradGradGradGradGradGradGradGradGradGradGradGradGradGrad

 Leave Link  103 at Wed Oct 19 23:03:09 2011, MaxMem=  128000000 cpu:       0.2
 (Enter /home/foresman/gdv/l202.exe)
                          Input orientation:                          
 ---------------------------------------------------------------------
 Center     Atomic      Atomic             Coordinates (Angstroms)
 Number     Number       Type             X           Y           Z
 ---------------------------------------------------------------------
      1          6           0       -1.419874   -2.064591   -1.066418
      2          6           0       -2.913786   -1.785818   -1.271329
      3          6           0       -0.696646   -2.286340   -2.403987
      4          6           0       -1.189475   -3.228182   -0.089458
      5          8           0       -0.941338   -0.784481   -0.443743
      6          6           0        0.398200   -0.662040   -0.104855
      7          8           0        1.276356   -1.522011   -0.274328
      8          7           0        0.611147    0.562327    0.445481
      9          6           0       -0.429477    1.611452    0.605412
     10          6           0        0.330906    2.724804    1.359491
     11          6           0        1.800284    2.548185    0.891495
     12          6           0        1.959531    1.006833    0.831510
     13          8           0        2.794014    3.223483    1.695100
     14          1           0        2.704716    2.879521    2.626300
     15          1           0       -3.395934   -2.656233   -1.727362
     16          1           0       -3.387453   -1.574355   -0.308018
     17          1           0       -3.043115   -0.917716   -1.924479
     18          1           0       -1.091259   -3.184732   -2.889941
     19          1           0       -0.862068   -1.426216   -3.061351
     20          1           0        0.372250   -2.401775   -2.220101
     21          1           0       -1.594504   -4.151681   -0.516167
     22          1           0       -0.119545   -3.340295    0.090274
     23          1           0       -1.698764   -3.022385    0.857922
     24          1           0       -1.285964    1.222497    1.159088
     25          1           0       -0.777464    1.953874   -0.375257
     26          1           0       -0.056738    3.723834    1.151598
     27          1           0        0.287469    2.540769    2.440805
     28          1           0        1.915371    2.964030   -0.112506
     29          1           0        2.242196    0.626215    1.824084
     30          1           0        2.700765    0.671226    0.103942
 ---------------------------------------------------------------------
                    Distance matrix (angstroms):
                    1          2          3          4          5
     1  C    0.000000
     2  C    1.533452   0.000000
     3  C    1.536659   2.539517   0.000000
     4  C    1.536711   2.539780   2.546957   0.000000
     5  O    1.501800   2.361805   2.481534   2.481686   0.000000
     6  C    2.489407   3.686840   3.020438   3.017620   1.387155
     7  O    2.862072   4.315194   3.002063   3.004250   2.343250
     8  N    3.648504   4.570161   4.236117   4.230408   2.239379
     9  C    4.158027   4.608187   4.931596   4.947978   2.665187
    10  C    5.646996   6.147760   6.350684   6.312611   4.145520
    11  C    5.956555   6.758983   6.361407   6.577791   4.517302
    12  C    4.945316   5.997503   5.326228   5.357216   3.640071
    13  O    7.303873   8.153023   7.703595   7.789532   5.881436
    14  H    7.422442   8.277951   7.972400   7.735896   6.011970
    15  H    2.166033   1.094557   2.807276   2.806834   3.343078
    16  H    2.164918   1.094097   3.484316   2.759352   2.574063
    17  H    2.164832   1.094044   2.758437   3.484470   2.574450
    18  H    2.165165   2.810421   1.094979   2.802541   3.430389
    19  H    2.167585   2.746458   1.095127   3.490905   2.696290
    20  H    2.157866   3.475284   1.090724   2.767954   2.737992
    21  H    2.165460   2.812131   2.801698   1.094979   3.430730
    22  H    2.157827   3.475363   2.768611   1.090698   2.737280
    23  H    2.167541   2.745740   3.490853   1.095106   2.697450
    24  H    3.971871   4.196033   5.035349   4.623497   2.591485
    25  H    4.127767   4.399104   4.701244   5.206260   2.744109
    26  H    6.346936   6.662549   7.012407   7.152191   4.863387
    27  H    6.035311   6.538144   6.909520   6.470270   4.570325
    28  H    6.109078   6.872021   6.296022   6.927054   4.724599
    29  H    5.385740   6.479478   5.915771   5.504033   4.155478
    30  H    5.082725   6.281052   5.155512   5.511510   3.960297
                    6          7          8          9         10
     6  C    0.000000
     7  O    1.240738   0.000000
     8  N    1.359150   2.303278   0.000000
     9  C    2.521565   3.674561   1.486317   0.000000
    10  C    3.690467   4.647438   2.364373   1.544789   0.000000
    11  C    3.641991   4.266162   2.357246   2.435395   1.552187
    12  C    2.469751   2.843353   1.471307   2.474680   2.425409
    13  O    4.906837   5.357392   3.661722   3.765231   2.535393
    14  H    5.032085   5.461441   3.808988   3.938929   2.695129
    15  H    4.583097   5.022754   5.580060   5.696914   7.236957
    16  H    3.899328   4.664225   4.595864   4.442222   5.923643
    17  H    3.901159   4.663261   4.600094   4.430365   5.952850
    18  H    4.042173   3.900215   5.297516   5.971501   7.416390
    19  H    3.303499   3.514190   4.292148   4.781183   6.180453
    20  H    2.738908   2.318928   3.993532   4.973156   6.252759
    21  H    4.039510   3.900704   5.292592   5.985726   7.383180
    22  H    2.734810   2.321127   3.986294   4.988108   6.212829
    23  H    3.300822   3.519155   4.284385   4.811163   6.115661
    24  H    2.825852   4.019016   2.131687   1.091518   2.216157
    25  H    2.880678   4.038581   2.130318   1.095472   2.198219
    26  H    4.584924   5.597257   3.307536   2.213462   1.091580
    27  H    4.092753   4.985581   2.828483   2.178603   1.097724
    28  H    3.930680   4.534213   2.789360   2.800569   2.175898
    29  H    2.963230   3.154529   2.136574   3.097369   2.876275
    30  H    2.668895   2.642407   2.120144   3.306647   3.377842
                   11         12         13         14         15
    11  C    0.000000
    12  C    1.550717   0.000000
    13  O    1.445444   2.521049   0.000000
    14  H    1.984270   2.698802   0.996704   0.000000
    15  H    7.806731   6.974731   9.197813   9.317557   0.000000
    16  H    6.734002   6.045766   8.077269   8.097021   1.784677
    17  H    6.587920   6.027091   8.020159   8.256280   1.784874
    18  H    7.451619   6.381672   8.785395   9.034019   2.634848
    19  H    6.205560   5.388461   7.590156   7.975631   3.116559
    20  H    6.018589   4.842561   7.268925   7.537910   3.808772
    21  H    7.641616   6.407625   8.862383   8.820215   2.636002
    22  H    6.245150   4.875398   7.358497   7.286562   3.808736
    23  H    6.578428   5.442280   7.739302   7.572997   3.114185
    24  H    3.369566   3.269106   4.575748   4.563328   5.275236
    25  H    2.933027   3.137564   4.318997   4.689535   5.471532
    26  H    2.213217   3.398512   2.944916   3.242412   7.755249
    27  H    2.165415   2.781830   2.702766   2.447906   7.612483
    28  H    1.092790   2.173416   2.026517   2.851538   7.899688
    29  H    2.181508   1.099988   2.658372   2.436157   7.428037
    30  H    2.225777   1.091520   3.009069   3.352443   7.182993
                   16         17         18         19         20
    16  H    0.000000
    17  H    1.778395   0.000000
    18  H    3.812106   3.143441   0.000000
    19  H    3.739032   2.511576   1.781653   0.000000
    20  H    4.298378   3.735578   1.789851   1.784085   0.000000
    21  H    3.146522   3.813180   2.612097   3.800340   3.135871
    22  H    3.735828   4.298299   3.138489   3.761353   2.541754
    23  H    2.511549   3.738805   3.800250   4.313758   3.761447
    24  H    3.793552   4.144451   5.988006   5.000747   5.225317
    25  H    4.389188   3.972316   5.729518   4.318248   4.867954
    26  H    6.426114   6.318598   8.070474   6.702276   7.005388
    27  H    6.164035   6.489192   7.943495   6.879835   6.794113
    28  H    6.982485   6.552692   7.386558   5.973618   5.967834
    29  H    6.409471   6.661078   6.917895   6.141368   5.387101
    30  H    6.502210   6.295345   6.181520   5.206930   4.501832
                   21         22         23         24         25
    21  H    0.000000
    22  H    1.789308   0.000000
    23  H    1.781656   1.784456   0.000000
    24  H    5.637683   4.829283   4.275527   0.000000
    25  H    6.161592   5.355166   5.208904   1.774176   0.000000
    26  H    8.195724   7.143687   6.949385   2.787066   2.446117
    27  H    7.554759   6.346461   6.115498   2.419986   3.067366
    28  H    7.944527   6.627708   7.059806   3.859848   2.888046
    29  H    6.559370   4.931239   5.456823   3.639462   3.964609
    30  H    6.488012   4.903736   5.793712   4.160677   3.738033
                   26         27         28         29         30
    26  H    0.000000
    27  H    1.783305   0.000000
    28  H    2.462615   3.057550   0.000000
    29  H    3.915684   2.804785   3.053289   0.000000
    30  H    4.244976   3.844492   2.433237   1.780786   0.000000
 Stoichiometry    C9H17NO3
 Framework group  C1[X(C9H17NO3)]
 Deg. of freedom    84
 Full point group                 C1      NOp   1
 Largest Abelian subgroup         C1      NOp   1
 Largest concise Abelian subgroup C1      NOp   1
                         Standard orientation:                         
 ---------------------------------------------------------------------
 Center     Atomic      Atomic             Coordinates (Angstroms)
 Number     Number       Type             X           Y           Z
 ---------------------------------------------------------------------
      1          6           0        2.713569    0.161501    0.024986
      2          6           0        3.337975    1.561045    0.078548
      3          6           0        3.038738   -0.652211    1.287309
      4          6           0        3.108912   -0.586534   -1.257834
      5          8           0        1.244410    0.471219   -0.007412
      6          6           0        0.337955   -0.577329   -0.062952
      7          8           0        0.618693   -1.785761   -0.080473
      8          7           0       -0.925306   -0.076654   -0.091016
      9          6           0       -1.265100    1.368645   -0.021796
     10          6           0       -2.800583    1.359877   -0.190872
     11          6           0       -3.228339   -0.007268    0.406810
     12          6           0       -2.102003   -0.959690   -0.071711
     13          8           0       -4.565202   -0.441829    0.070264
     14          1           0       -4.619159   -0.489243   -0.923848
     15          1           0        4.429272    1.481169    0.105826
     16          1           0        3.040072    2.134430   -0.804361
     17          1           0        2.991864    2.087834    0.972770
     18          1           0        4.118756   -0.822875    1.345739
     19          1           0        2.718726   -0.099331    2.176814
     20          1           0        2.512893   -1.606879    1.245209
     21          1           0        4.190376   -0.757906   -1.264567
     22          1           0        2.581611   -1.540585   -1.294751
     23          1           0        2.839665    0.013028   -2.133785
     24          1           0       -0.747611    1.923496   -0.806499
     25          1           0       -0.968623    1.782487    0.948201
     26          1           0       -3.289883    2.202565    0.301072
     27          1           0       -3.059245    1.367496   -1.257659
     28          1           0       -3.214267    0.051678    1.497918
     29          1           0       -2.340626   -1.337628   -1.076796
     30          1           0       -1.936626   -1.810407    0.591875
 ---------------------------------------------------------------------
 Rotational constants (GHZ):      1.9436527      0.3745214      0.3426898
 Leave Link  202 at Wed Oct 19 23:03:09 2011, MaxMem=  128000000 cpu:       0.0
 (Enter /home/foresman/gdv/l301.exe)
 Standard basis: 3-21G (6D, 7F)
 Ernie: Thresh=  0.10000D-02 Tol=  0.10000D-05 Strict=F.
 There are   151 symmetry adapted cartesian basis functions of A   symmetry.
 There are   151 symmetry adapted basis functions of A   symmetry.
   151 basis functions,   246 primitive gaussians,   151 cartesian basis functions
    51 alpha electrons       51 beta electrons
       nuclear repulsion energy       869.3382423631 Hartrees.
 IExCor=  402 DFT=T Ex+Corr=B3LYP ExCW=0 ScaHFX=  0.200000
 ScaDFX=  0.800000  0.720000  1.000000  0.810000 ScalE2=  1.000000  1.000000
 IRadAn=      0 IRanWt=     -1 IRanGd=            0 ICorTp=0 IEmpDi=  4
 NAtoms=   30 NActive=   30 NUniq=   30 SFac= 1.00D+00 NAtFMM=   60 NAOKFM=F Big=F
 Integral buffers will be    131072 words long.
 Raffenetti 2 integral format.
 Two-electron integral symmetry is turned on.
 Leave Link  301 at Wed Oct 19 23:03:09 2011, MaxMem=  128000000 cpu:       0.5
 (Enter /home/foresman/gdv/l302.exe)
 NPDir=0 NMtPBC=     1 NCelOv=     1 NCel=       1 NClECP=     1 NCelD=      1
         NCelK=      1 NCelE2=     1 NClLst=     1 CellRange=     0.0.
 One-electron integrals computed using PRISM.
 NBasis=   151 RedAO= T EigKep=  9.37D-03  NBF=   151
 NBsUse=   151 1.00D-06 EigRej= -1.00D+00 NBFU=   151
 Precomputing XC quadrature grid using
 IXCGrd= 2 IRadAn=           0 IRanWt=          -1 IRanGd=           0 AccXCQ= 0.00D+00.
 NRdTot=    1903 NPtTot=      240680 NUsed=      254404 NTot=      254436
 NSgBfM=   148   148   148   148   148 NAtAll=    30    30.
 Leave Link  302 at Wed Oct 19 23:03:09 2011, MaxMem=  128000000 cpu:       2.1
 (Enter /home/foresman/gdv/l303.exe)
 DipDrv:  MaxL=2.
 Leave Link  303 at Wed Oct 19 23:03:09 2011, MaxMem=  128000000 cpu:       0.4
 (Enter /home/foresman/gdv/l401.exe)
 ExpMin= 1.83D-01 ExpMax= 3.22D+02 ExpMxC= 3.22D+02 IAcc=1 IRadAn=         1 AccDes= 0.00D+00
 Harris functional with IExCor=  402 and IRadAn=       1 diagonalized for initial guess.
 HarFok:  IExCor=  402 AccDes= 0.00D+00 IRadAn=         1 IDoV= 1 UseB2=F ITyADJ=14
 ICtDFT=  3500011 ScaDFX=  1.000000  1.000000  1.000000  1.000000
 FoFCou: FMM=F IPFlag=           0 FMFlag=      100000 FMFlg1=           0
         NFxFlg=           0 DoJE=T BraDBF=F KetDBF=T FulRan=T
         wScrn=  0.000000 ICntrl=     500 IOpCl=  0 I1Cent=   200000004 NGrid=           0
         NMat0=    1 NMatS0=      1 NMatT0=    0 NMatD0=    1 NMtDS0=    0 NMtDT0=    0
 Petite list used in FoFCou.
 Harris En= -630.189019089782    
 Initial guess orbital symmetries:
       Occupied  (A) (A) (A) (A) (A) (A) (A) (A) (A) (A) (A) (A)
                 (A) (A) (A) (A) (A) (A) (A) (A) (A) (A) (A) (A)
                 (A) (A) (A) (A) (A) (A) (A) (A) (A) (A) (A) (A)
                 (A) (A) (A) (A) (A) (A) (A) (A) (A) (A) (A) (A)
                 (A) (A) (A)
       Virtual   (A) (A) (A) (A) (A) (A) (A) (A) (A) (A) (A) (A)
                 (A) (A) (A) (A) (A) (A) (A) (A) (A) (A) (A) (A)
                 (A) (A) (A) (A) (A) (A) (A) (A) (A) (A) (A) (A)
                 (A) (A) (A) (A) (A) (A) (A) (A) (A) (A) (A) (A)
                 (A) (A) (A) (A) (A) (A) (A) (A) (A) (A) (A) (A)
                 (A) (A) (A) (A) (A) (A) (A) (A) (A) (A) (A) (A)
                 (A) (A) (A) (A) (A) (A) (A) (A) (A) (A) (A) (A)
                 (A) (A) (A) (A) (A) (A) (A) (A) (A) (A) (A) (A)
                 (A) (A) (A) (A)
 The electronic state of the initial guess is 1-A.
 Leave Link  401 at Wed Oct 19 23:03:09 2011, MaxMem=  128000000 cpu:       2.8
 (Enter /home/foresman/gdv/l502.exe)
 Closed shell SCF:
 Using DIIS extrapolation, IDIIS=  1040.
 Integral symmetry usage will be decided dynamically.
       254121 words used for storage of precomputed grid.
 Keep R1 ints in memory in canonical form, NReq=67953922.
 IVT=      343068 IEndB=      343068 NGot=   128000000 MDV=    61801907
 LenX=    61801907 LenY=    61778665
 Requested convergence on RMS density matrix=1.00D-08 within 128 cycles.
 Requested convergence on MAX density matrix=1.00D-06.
 Requested convergence on             energy=1.00D-06.
 No special actions if energy rises.
 FoFCou: FMM=F IPFlag=           0 FMFlag=           0 FMFlg1=           0
         NFxFlg=           0 DoJE=F BraDBF=F KetDBF=F FulRan=T
         wScrn=  0.000000 ICntrl=     600 IOpCl=  0 I1Cent=           0 NGrid=           0
         NMat0=    1 NMatS0=  11476 NMatT0=    0 NMatD0=    1 NMtDS0=    0 NMtDT0=    0
 Symmetry not used in FoFCou.
 Integral accuracy reduced to 1.0D-05 until final iterations.

 Cycle   1  Pass 0  IDiag  1:
 E= -629.850549137896    
 DIIS: error= 4.59D-02 at cycle   1 NSaved=   1.
 NSaved= 1 IEnMin= 1 EnMin= -629.850549137896     IErMin= 1 ErrMin= 4.59D-02
 ErrMax= 4.59D-02  0.00D+00 EMaxC= 1.00D-01 BMatC= 3.62D-01 BMatP= 3.62D-01
 IDIUse=3 WtCom= 5.41D-01 WtEn= 4.59D-01
 Coeff-Com:  0.100D+01
 Coeff-En:   0.100D+01
 Coeff:      0.100D+01
 Gap=     0.272 Goal=   None    Shift=    0.000
 GapD=    0.272 DampG=1.000 DampE=0.500 DampFc=0.5000 IDamp=-1.
 Damping current iteration by 5.00D-01
 RMSDP=8.86D-03 MaxDP=1.76D-01              OVMax= 3.15D-01

 Cycle   2  Pass 0  IDiag  1:
 E= -629.951031725047     Delta-E=       -0.100482587151 Rises=F Damp=T
 DIIS: error= 3.30D-02 at cycle   2 NSaved=   2.
 NSaved= 2 IEnMin= 2 EnMin= -629.951031725047     IErMin= 2 ErrMin= 3.30D-02
 ErrMax= 3.30D-02  0.00D+00 EMaxC= 1.00D-01 BMatC= 5.11D-02 BMatP= 3.62D-01
 IDIUse=3 WtCom= 6.70D-01 WtEn= 3.30D-01
 Coeff-Com:  0.201D+00 0.799D+00
 Coeff-En:   0.308D+00 0.692D+00
 Coeff:      0.237D+00 0.763D+00
 Gap=     0.292 Goal=   None    Shift=    0.000
 RMSDP=2.81D-03 MaxDP=6.47D-02 DE=-1.00D-01 OVMax= 2.08D-01

 Cycle   3  Pass 0  IDiag  1:
 E= -630.124625732851     Delta-E=       -0.173594007804 Rises=F Damp=F
 DIIS: error= 4.02D-02 at cycle   3 NSaved=   3.
 NSaved= 3 IEnMin= 3 EnMin= -630.124625732851     IErMin= 2 ErrMin= 3.30D-02
 ErrMax= 4.02D-02  0.00D+00 EMaxC= 1.00D-01 BMatC= 6.29D-02 BMatP= 5.11D-02
 IDIUse=2 WtCom= 0.00D+00 WtEn= 1.00D+00
 Coeff-En:   0.000D+00 0.000D+00 0.100D+01
 Coeff:      0.000D+00 0.000D+00 0.100D+01
 Gap=     0.330 Goal=   None    Shift=    0.000
 RMSDP=5.28D-03 MaxDP=1.35D-01 DE=-1.74D-01 OVMax= 3.10D-01

 Cycle   4  Pass 0  IDiag  1:
 E= -629.879139804278     Delta-E=        0.245485928573 Rises=F Damp=F
 DIIS: error= 1.11D-01 at cycle   4 NSaved=   4.
 NSaved= 4 IEnMin= 3 EnMin= -630.124625732851     IErMin= 2 ErrMin= 3.30D-02
 ErrMax= 1.11D-01  0.00D+00 EMaxC= 1.00D-01 BMatC= 3.79D-01 BMatP= 5.11D-02
 IDIUse=2 WtCom= 0.00D+00 WtEn= 1.00D+00
 Coeff-En:   0.000D+00 0.000D+00 0.797D+00 0.203D+00
 Coeff:      0.000D+00 0.000D+00 0.797D+00 0.203D+00
 Gap=     0.299 Goal=   None    Shift=    0.000
 RMSDP=2.88D-03 MaxDP=7.61D-02 DE= 2.45D-01 OVMax= 1.47D-01

 Cycle   5  Pass 0  IDiag  1:
 E= -630.157226194293     Delta-E=       -0.278086390016 Rises=F Damp=F
 DIIS: error= 2.67D-02 at cycle   5 NSaved=   5.
 NSaved= 5 IEnMin= 5 EnMin= -630.157226194293     IErMin= 5 ErrMin= 2.67D-02
 ErrMax= 2.67D-02  0.00D+00 EMaxC= 1.00D-01 BMatC= 2.50D-02 BMatP= 5.11D-02
 IDIUse=3 WtCom= 7.33D-01 WtEn= 2.67D-01
 Coeff-Com: -0.122D-01 0.573D-01 0.312D+00-0.754D-01 0.718D+00
 Coeff-En:   0.000D+00 0.000D+00 0.322D+00 0.000D+00 0.678D+00
 Coeff:     -0.896D-02 0.420D-01 0.315D+00-0.552D-01 0.708D+00
 Gap=     0.302 Goal=   None    Shift=    0.000
 RMSDP=1.06D-03 MaxDP=2.75D-02 DE=-2.78D-01 OVMax= 4.38D-02

 Cycle   6  Pass 0  IDiag  1:
 E= -630.177431194386     Delta-E=       -0.020205000093 Rises=F Damp=F
 DIIS: error= 2.66D-03 at cycle   6 NSaved=   6.
 NSaved= 6 IEnMin= 6 EnMin= -630.177431194386     IErMin= 6 ErrMin= 2.66D-03
 ErrMax= 2.66D-03  0.00D+00 EMaxC= 1.00D-01 BMatC= 2.94D-04 BMatP= 2.50D-02
 IDIUse=3 WtCom= 9.73D-01 WtEn= 2.66D-02
 Coeff-Com: -0.102D-01 0.265D-01 0.136D+00-0.471D-01 0.408D+00 0.487D+00
 Coeff-En:   0.000D+00 0.000D+00 0.000D+00 0.000D+00 0.000D+00 0.100D+01
 Coeff:     -0.997D-02 0.258D-01 0.132D+00-0.459D-01 0.397D+00 0.501D+00
 Gap=     0.286 Goal=   None    Shift=    0.000
 RMSDP=1.22D-04 MaxDP=3.98D-03 DE=-2.02D-02 OVMax= 6.53D-03

 Cycle   7  Pass 0  IDiag  1:
 E= -630.177665424825     Delta-E=       -0.000234230438 Rises=F Damp=F
 DIIS: error= 4.41D-04 at cycle   7 NSaved=   7.
 NSaved= 7 IEnMin= 7 EnMin= -630.177665424825     IErMin= 7 ErrMin= 4.41D-04
 ErrMax= 4.41D-04  0.00D+00 EMaxC= 1.00D-01 BMatC= 8.83D-06 BMatP= 2.94D-04
 IDIUse=3 WtCom= 9.96D-01 WtEn= 4.41D-03
 Coeff-Com: -0.292D-02 0.668D-02 0.302D-01-0.145D-01 0.109D+00 0.235D+00
 Coeff-Com:  0.637D+00
 Coeff-En:   0.000D+00 0.000D+00 0.000D+00 0.000D+00 0.000D+00 0.000D+00
 Coeff-En:   0.100D+01
 Coeff:     -0.291D-02 0.665D-02 0.301D-01-0.144D-01 0.108D+00 0.234D+00
 Coeff:      0.638D+00
 Gap=     0.285 Goal=   None    Shift=    0.000
 RMSDP=1.84D-05 MaxDP=4.96D-04 DE=-2.34D-04 OVMax= 6.58D-04

 Cycle   8  Pass 0  IDiag  1:
 E= -630.177672104019     Delta-E=       -0.000006679194 Rises=F Damp=F
 DIIS: error= 6.94D-05 at cycle   8 NSaved=   8.
 NSaved= 8 IEnMin= 8 EnMin= -630.177672104019     IErMin= 8 ErrMin= 6.94D-05
 ErrMax= 6.94D-05  0.00D+00 EMaxC= 1.00D-01 BMatC= 5.52D-07 BMatP= 8.83D-06
 IDIUse=1 WtCom= 1.00D+00 WtEn= 0.00D+00
 Coeff-Com: -0.295D-03-0.148D-03 0.283D-02-0.162D-02 0.139D-01 0.874D-01
 Coeff-Com:  0.336D+00 0.562D+00
 Coeff:     -0.295D-03-0.148D-03 0.283D-02-0.162D-02 0.139D-01 0.874D-01
 Coeff:      0.336D+00 0.562D+00
 Gap=     0.285 Goal=   None    Shift=    0.000
 RMSDP=5.69D-06 MaxDP=1.07D-04 DE=-6.68D-06 OVMax= 1.89D-04

 Initial convergence to 1.0D-05 achieved.  Increase integral accuracy.
 Cycle   9  Pass 1  IDiag  1:
 E= -630.177779621199     Delta-E=       -0.000107517180 Rises=F Damp=F
 DIIS: error= 1.75D-05 at cycle   1 NSaved=   1.
 NSaved= 1 IEnMin= 1 EnMin= -630.177779621199     IErMin= 1 ErrMin= 1.75D-05
 ErrMax= 1.75D-05  0.00D+00 EMaxC= 1.00D-01 BMatC= 7.47D-08 BMatP= 7.47D-08
 IDIUse=1 WtCom= 1.00D+00 WtEn= 0.00D+00
 Coeff-Com:  0.100D+01
 Coeff:      0.100D+01
 Gap=     0.285 Goal=   None    Shift=    0.000
 RMSDP=5.69D-06 MaxDP=1.07D-04 DE=-1.08D-04 OVMax= 6.68D-05

 Cycle  10  Pass 1  IDiag  1:
 E= -630.177779702484     Delta-E=       -0.000000081286 Rises=F Damp=F
 DIIS: error= 1.73D-05 at cycle   2 NSaved=   2.
 NSaved= 2 IEnMin= 2 EnMin= -630.177779702484     IErMin= 2 ErrMin= 1.73D-05
 ErrMax= 1.73D-05  0.00D+00 EMaxC= 1.00D-01 BMatC= 2.90D-08 BMatP= 7.47D-08
 IDIUse=1 WtCom= 1.00D+00 WtEn= 0.00D+00
 Coeff-Com:  0.327D+00 0.673D+00
 Coeff:      0.327D+00 0.673D+00
 Gap=     0.285 Goal=   None    Shift=    0.000
 RMSDP=1.83D-06 MaxDP=4.31D-05 DE=-8.13D-08 OVMax= 5.87D-05

 Cycle  11  Pass 1  IDiag  1:
 E= -630.177779708743     Delta-E=       -0.000000006259 Rises=F Damp=F
 DIIS: error= 1.52D-05 at cycle   3 NSaved=   3.
 NSaved= 3 IEnMin= 3 EnMin= -630.177779708743     IErMin= 3 ErrMin= 1.52D-05
 ErrMax= 1.52D-05  0.00D+00 EMaxC= 1.00D-01 BMatC= 2.19D-08 BMatP= 2.90D-08
 IDIUse=1 WtCom= 1.00D+00 WtEn= 0.00D+00
 Coeff-Com: -0.206D-01 0.468D+00 0.552D+00
 Coeff:     -0.206D-01 0.468D+00 0.552D+00
 Gap=     0.285 Goal=   None    Shift=    0.000
 RMSDP=8.34D-07 MaxDP=2.10D-05 DE=-6.26D-09 OVMax= 3.32D-05

 Cycle  12  Pass 1  IDiag  1:
 E= -630.177779724286     Delta-E=       -0.000000015542 Rises=F Damp=F
 DIIS: error= 1.81D-06 at cycle   4 NSaved=   4.
 NSaved= 4 IEnMin= 4 EnMin= -630.177779724286     IErMin= 4 ErrMin= 1.81D-06
 ErrMax= 1.81D-06  0.00D+00 EMaxC= 1.00D-01 BMatC= 2.88D-10 BMatP= 2.19D-08
 IDIUse=1 WtCom= 1.00D+00 WtEn= 0.00D+00
 Coeff-Com: -0.152D-01 0.248D+00 0.298D+00 0.469D+00
 Coeff:     -0.152D-01 0.248D+00 0.298D+00 0.469D+00
 Gap=     0.285 Goal=   None    Shift=    0.000
 RMSDP=1.31D-07 MaxDP=2.55D-06 DE=-1.55D-08 OVMax= 4.96D-06

 Cycle  13  Pass 1  IDiag  1:
 E= -630.177779724492     Delta-E=       -0.000000000206 Rises=F Damp=F
 DIIS: error= 9.77D-07 at cycle   5 NSaved=   5.
 NSaved= 5 IEnMin= 5 EnMin= -630.177779724492     IErMin= 5 ErrMin= 9.77D-07
 ErrMax= 9.77D-07  0.00D+00 EMaxC= 1.00D-01 BMatC= 3.55D-11 BMatP= 2.88D-10
 IDIUse=1 WtCom= 1.00D+00 WtEn= 0.00D+00
 Coeff-Com: -0.674D-02 0.839D-01 0.989D-01 0.265D+00 0.559D+00
 Coeff:     -0.674D-02 0.839D-01 0.989D-01 0.265D+00 0.559D+00
 Gap=     0.285 Goal=   None    Shift=    0.000
 RMSDP=4.75D-08 MaxDP=1.27D-06 DE=-2.06D-10 OVMax= 2.03D-06

 Cycle  14  Pass 1  IDiag  1:
 E= -630.177779724521     Delta-E=       -0.000000000028 Rises=F Damp=F
 DIIS: error= 4.35D-07 at cycle   6 NSaved=   6.
 NSaved= 6 IEnMin= 6 EnMin= -630.177779724521     IErMin= 6 ErrMin= 4.35D-07
 ErrMax= 4.35D-07  0.00D+00 EMaxC= 1.00D-01 BMatC= 8.65D-12 BMatP= 3.55D-11
 IDIUse=1 WtCom= 1.00D+00 WtEn= 0.00D+00
 Coeff-Com: -0.231D-02 0.220D-01 0.249D-01 0.112D+00 0.382D+00 0.462D+00
 Coeff:     -0.231D-02 0.220D-01 0.249D-01 0.112D+00 0.382D+00 0.462D+00
 Gap=     0.285 Goal=   None    Shift=    0.000
 RMSDP=2.06D-08 MaxDP=7.79D-07 DE=-2.84D-11 OVMax= 1.02D-06

 Cycle  15  Pass 1  IDiag  1:
 E= -630.177779724549     Delta-E=       -0.000000000028 Rises=F Damp=F
 DIIS: error= 5.98D-08 at cycle   7 NSaved=   7.
 NSaved= 7 IEnMin= 7 EnMin= -630.177779724549     IErMin= 7 ErrMin= 5.98D-08
 ErrMax= 5.98D-08  0.00D+00 EMaxC= 1.00D-01 BMatC= 2.43D-13 BMatP= 8.65D-12
 IDIUse=1 WtCom= 1.00D+00 WtEn= 0.00D+00
 Coeff-Com: -0.333D-03 0.159D-02 0.171D-02 0.195D-01 0.101D+00 0.200D+00
 Coeff-Com:  0.677D+00
 Coeff:     -0.333D-03 0.159D-02 0.171D-02 0.195D-01 0.101D+00 0.200D+00
 Coeff:      0.677D+00
 Gap=     0.285 Goal=   None    Shift=    0.000
 RMSDP=5.19D-09 MaxDP=1.47D-07 DE=-2.80D-11 OVMax= 2.07D-07

 SCF Done:  E(RB3LYP) =  -630.177779725     A.U. after   15 cycles
            NFock= 15  Conv=0.52D-08     -V/T= 2.0085
 KE= 6.248433562078D+02 PE=-3.208046022710D+03 EE= 1.083686644414D+03
 Leave Link  502 at Wed Oct 19 23:03:22 2011, MaxMem=  128000000 cpu:      96.1
 (Enter /home/foresman/gdv/l801.exe)
 DoSCS=F DFT=T ScalE2(SS,OS)=  1.000000  1.000000
 Range of M.O.s used for correlation:     1   151
 NBasis=   151 NAE=    51 NBE=    51 NFC=     0 NFV=     0
 NROrb=    151 NOA=    51 NOB=    51 NVA=   100 NVB=   100
 Leave Link  801 at Wed Oct 19 23:03:22 2011, MaxMem=  128000000 cpu:       0.3
 (Enter /home/foresman/gdv/l1002.exe)
 Minotr:  Closed shell wavefunction.
          Direct CPHF calculation.
          Differentiating once with respect to magnetic field using GIAOs.
          Electric field/nuclear overlap derivatives assumed to be zero.
          Requested convergence is 1.0D-08 RMS, and 1.0D-07 maximum.
          Secondary convergence is 1.0D-12 RMS, and 1.0D-12 maximum.
          NewPWx=T KeepS1=F KeepF1=F KeepIn=T MapXYZ=F SortEE=F KeepMc=T.
          MDV=     127999605 using IRadAn=       2.
 Generate precomputed XC quadrature information.
 Keep R3 ints in memory in canonical form, NReq=67618787.
 FoFCou: FMM=F IPFlag=           0 FMFlag=           0 FMFlg1=           0
         NFxFlg=           0 DoJE=F BraDBF=F KetDBF=F FulRan=T
         wScrn=  0.000000 ICntrl=     600 IOpCl=  0 I1Cent=           0 NGrid=           0
         NMat0=    1 NMatS0=  11476 NMatT0=    0 NMatD0=    1 NMtDS0=    0 NMtDT0=    0
 Symmetry not used in FoFCou.
          Solving linear equations simultaneously, MaxMat=       0.
 FoFJK:  IHMeth= 1 ICntrl=    6127 DoSepK=F KAlg= 0 I1Cent=   0 FoldK=F
 IRaf=       1 NMat=   1 IRICut=       1 DoRegI=T DoRafI=F ISym2E= 0.
          There are     3 degrees of freedom in the 1st order CPHF.  IDoFFX=0 NUNeed=     3.
      3 vectors produced by pass  0 Test12= 1.70D-13 3.33D-08 XBig12= 2.65D+01 9.56D-01.
 AX will form     3 AO Fock derivatives at one time.
      3 vectors produced by pass  1 Test12= 1.70D-13 3.33D-08 XBig12= 3.61D-02 8.91D-02.
      3 vectors produced by pass  2 Test12= 1.70D-13 3.33D-08 XBig12= 2.44D-04 8.51D-03.
      3 vectors produced by pass  3 Test12= 1.70D-13 3.33D-08 XBig12= 5.53D-07 1.88D-04.
      3 vectors produced by pass  4 Test12= 1.70D-13 3.33D-08 XBig12= 2.23D-09 1.53D-05.
      3 vectors produced by pass  5 Test12= 1.70D-13 3.33D-08 XBig12= 5.00D-12 5.19D-07.
 InvSVY:  IOpt=1 It=  1 EMax= 8.88D-16
 Solved reduced A of dimension    18 with     3 vectors.
 Calculating GIAO nuclear magnetic shielding tensors.
 SCF GIAO Magnetic shielding tensor (ppm):
      1  C    Isotropic =   124.2064   Anisotropy =    69.1514
   XX=   169.4273   YX=    -7.9211   ZX=     1.5544
   XY=    -7.5407   YY=    99.8072   ZY=    -0.2644
   XZ=     1.3175   YZ=    -0.3582   ZZ=   103.3847
   Eigenvalues:    98.9537   103.3581   170.3073
      2  C    Isotropic =   173.9135   Anisotropy =    40.9363
   XX=   166.7769   YX=    15.6179   ZX=     0.6814
   XY=    12.9508   YY=   195.2212   ZY=     1.2490
   XZ=     0.4151   YZ=     1.3553   ZZ=   159.7424
   Eigenvalues:   159.6942   160.8419   201.2044
      3  C    Isotropic =   178.7374   Anisotropy =    35.3830
   XX=   169.8650   YX=    -7.5617   ZX=     4.1659
   XY=    -7.0726   YY=   171.8325   ZY=   -14.9955
   XZ=     0.2773   YZ=   -13.7301   ZZ=   194.5148
   Eigenvalues:   161.0179   172.8683   202.3261
      4  C    Isotropic =   178.7870   Anisotropy =    35.5100
   XX=   170.1793   YX=    -7.9666   ZX=    -5.8292
   XY=    -7.7705   YY=   170.3539   ZY=    13.4207
   XZ=    -1.9127   YZ=    11.9844   ZZ=   195.8277
   Eigenvalues:   160.9729   172.9277   202.4603
      5  O    Isotropic =   160.1643   Anisotropy =    74.6690
   XX=   138.2641   YX=    12.1185   ZX=    -1.7144
   XY=   135.4205   YY=   134.0230   ZY=     1.8686
   XZ=     4.4754   YZ=    -4.6680   ZZ=   208.2057
   Eigenvalues:    62.3171   208.2321   209.9436
      6  C    Isotropic =    62.3785   Anisotropy =    63.0004
   XX=     1.0002   YX=   -27.9998   ZX=    -3.4220
   XY=   -45.9558   YY=    91.1489   ZY=    -1.5957
   XZ=    -4.9946   YZ=    -1.0733   ZZ=    94.9863
   Eigenvalues:   -12.4081    95.1647   104.3787
      7  O    Isotropic =    41.4232   Anisotropy =   382.1217
   XX=   -66.3743   YX=    10.5807   ZX=   -15.6211
   XY=    -2.1691   YY=  -104.1114   ZY=   -11.7913
   XZ=    -4.5823   YZ=   -30.5859   ZZ=   294.7554
   Eigenvalues:  -105.5788   -66.3225   296.1710
      8  N    Isotropic =   181.1433   Anisotropy =   129.7022
   XX=   256.1468   YX=   -25.8166   ZX=    -4.1299
   XY=   -50.0273   YY=   142.0681   ZY=    -3.4933
   XZ=    -0.4512   YZ=    -4.4188   ZZ=   145.2149
   Eigenvalues:   129.3630   146.4554   267.6114
      9  C    Isotropic =   159.1507   Anisotropy =    44.4826
   XX=   162.5490   YX=   -13.9072   ZX=    -1.4611
   XY=   -13.6388   YY=   181.5645   ZY=     1.1049
   XZ=     3.2323   YZ=     1.7433   ZZ=   133.3386
   Eigenvalues:   133.2310   155.4154   188.8058
     10  C    Isotropic =   168.4536   Anisotropy =    30.5420
   XX=   175.7418   YX=     9.1871   ZX=     2.1863
   XY=     9.0405   YY=   180.5013   ZY=    -7.7641
   XZ=     4.5517   YZ=   -14.3810   ZZ=   149.1176
   Eigenvalues:   144.4112   172.1346   188.8149
     11  C    Isotropic =   132.9929   Anisotropy =    59.2765
   XX=   167.0837   YX=    11.1162   ZX=    14.1301
   XY=    13.9968   YY=   135.6487   ZY=     1.6208
   XZ=     4.8025   YZ=    -2.2255   ZZ=    96.2463
   Eigenvalues:    94.9062   131.5619   172.5105
     12  C    Isotropic =   153.3674   Anisotropy =    39.2366
   XX=   177.7960   YX=     8.9328   ZX=    -4.4528
   XY=     4.9291   YY=   144.9477   ZY=     4.0325
   XZ=    -6.1609   YZ=    11.9830   ZZ=   137.3586
   Eigenvalues:   130.8483   149.7288   179.5252
     13  O    Isotropic =   270.6921   Anisotropy =   107.6702
   XX=   236.6099   YX=     3.8054   ZX=   -17.4042
   XY=     8.6535   YY=   234.2217   ZY=    -0.2725
   XZ=    35.2409   YZ=    13.5593   ZZ=   341.2446
   Eigenvalues:   229.0699   240.5341   342.4722
     14  H    Isotropic =    33.2200   Anisotropy =    12.7910
   XX=    33.6293   YX=     2.3027   ZX=     3.5830
   XY=     2.4476   YY=    26.7626   ZY=     1.6278
   XZ=     4.2525   YZ=     1.8795   ZZ=    39.2682
   Eigenvalues:    25.9980    31.9147    41.7473
     15  H    Isotropic =    31.8039   Anisotropy =     8.8053
   XX=    36.2814   YX=     2.8738   ZX=     0.3146
   XY=     3.2093   YY=    30.9603   ZY=     0.1629
   XZ=     0.3018   YZ=     0.1307   ZZ=    28.1700
   Eigenvalues:    28.1577    29.5799    37.6741
     16  H    Isotropic =    31.3881   Anisotropy =     7.9632
   XX=    29.0322   YX=     1.2051   ZX=     0.0208
   XY=     0.3894   YY=    34.2984   ZY=    -4.2803
   XZ=     0.4575   YZ=    -3.1341   ZZ=    30.8336
   Eigenvalues:    28.0538    29.4136    36.6969
     17  H    Isotropic =    31.3918   Anisotropy =     7.9391
   XX=    29.0596   YX=     1.0185   ZX=     0.0088
   XY=     0.1685   YY=    33.9020   ZY=     4.4661
   XZ=    -0.5116   YZ=     3.3053   ZZ=    31.2138
   Eigenvalues:    28.1206    29.3702    36.6845
     18  H    Isotropic =    31.9967   Anisotropy =     9.1461
   XX=    35.4301   YX=    -2.6276   ZX=     2.6945
   XY=    -2.8850   YY=    29.5196   ZY=    -1.8544
   XZ=     2.9788   YZ=    -1.8841   ZZ=    31.0405
   Eigenvalues:    28.1272    29.7689    38.0941
     19  H    Isotropic =    31.8524   Anisotropy =     7.8730
   XX=    29.5786   YX=    -0.6583   ZX=     0.4390
   XY=    -0.4035   YY=    28.9553   ZY=     0.1001
   XZ=    -0.4842   YZ=     1.4848   ZZ=    37.0232
   Eigenvalues:    28.5962    29.8599    37.1011
     20  H    Isotropic =    29.8088   Anisotropy =     6.5438
   XX=    29.2517   YX=     1.8387   ZX=     2.3414
   XY=     2.4581   YY=    32.5428   ZY=    -2.1097
   XZ=     2.8333   YZ=    -3.9317   ZZ=    27.6320
   Eigenvalues:    24.1029    31.1521    34.1714
     21  H    Isotropic =    31.9917   Anisotropy =     9.1209
   XX=    35.7280   YX=    -2.5879   ZX=    -2.5368
   XY=    -2.8417   YY=    29.3313   ZY=     1.6433
   XZ=    -2.8647   YZ=     1.6181   ZZ=    30.9160
   Eigenvalues:    28.1203    29.7826    38.0723
     22  H    Isotropic =    29.8040   Anisotropy =     6.5510
   XX=    29.5346   YX=     1.7578   ZX=    -2.1157
   XY=     2.4724   YY=    32.1843   ZY=     2.5547
   XZ=    -2.6397   YZ=     4.2517   ZZ=    27.6931
   Eigenvalues:    24.0847    31.1560    34.1714
     23  H    Isotropic =    31.8444   Anisotropy =     7.9043
   XX=    29.5657   YX=    -0.4972   ZX=    -0.8252
   XY=    -0.3846   YY=    29.0568   ZY=    -0.4960
   XZ=     0.0484   YZ=    -1.9751   ZZ=    36.9108
   Eigenvalues:    28.6082    29.8112    37.1140
     24  H    Isotropic =    29.6409   Anisotropy =     7.0763
   XX=    31.2138   YX=     0.6255   ZX=    -1.6941
   XY=     1.0337   YY=    30.9441   ZY=    -4.5944
   XZ=    -1.8004   YZ=    -3.6844   ZZ=    26.7649
   Eigenvalues:    24.0563    30.5080    34.3585
     25  H    Isotropic =    29.8042   Anisotropy =     7.9915
   XX=    29.7662   YX=    -0.3491   ZX=     2.2878
   XY=    -0.0197   YY=    30.7917   ZY=     4.9611
   XZ=     2.1685   YZ=     4.8242   ZZ=    28.8545
   Eigenvalues:    24.2098    30.0708    35.1319
     26  H    Isotropic =    30.9110   Anisotropy =     9.8404
   XX=    30.8645   YX=    -2.9216   ZX=    -1.4655
   XY=    -4.2374   YY=    34.7271   ZY=     2.6419
   XZ=    -1.0320   YZ=     1.7053   ZZ=    27.1413
   Eigenvalues:    26.5324    28.7293    37.4712
     27  H    Isotropic =    31.4842   Anisotropy =     7.8172
   XX=    32.3155   YX=    -0.2997   ZX=     2.9416
   XY=    -1.1454   YY=    28.9947   ZY=    -3.0282
   XZ=     3.1440   YZ=    -2.5751   ZZ=    33.1424
   Eigenvalues:    27.4363    30.3206    36.6957
     28  H    Isotropic =    28.4578   Anisotropy =     5.5844
   XX=    28.6715   YX=     0.5036   ZX=    -0.2958
   XY=     0.4729   YY=    25.2977   ZY=    -0.0074
   XZ=    -2.9211   YZ=    -0.5818   ZZ=    31.4041
   Eigenvalues:    25.2277    27.9649    32.1807
     29  H    Isotropic =    30.3526   Anisotropy =     8.5467
   XX=    31.1203   YX=     2.8517   ZX=     1.4689
   XY=     2.8668   YY=    29.6930   ZY=     3.9328
   XZ=     1.6455   YZ=     4.2553   ZZ=    30.2446
   Eigenvalues:    25.6247    29.3828    36.0505
     30  H    Isotropic =    29.1187   Anisotropy =     6.6966
   XX=    29.7082   YX=     0.4687   ZX=    -0.6426
   XY=     0.3757   YY=    31.6893   ZY=    -3.9267
   XZ=    -0.1511   YZ=    -3.4738   ZZ=    25.9587
   Eigenvalues:    24.1389    29.6342    33.5832
 End of Minotr F.D. properties file   721 does not exist.
 End of Minotr F.D. properties file   722 does not exist.
 Leave Link 1002 at Wed Oct 19 23:03:32 2011, MaxMem=  128000000 cpu:      79.3
 (Enter /home/foresman/gdv/l1101.exe)
 Using compressed storage, NAtomX=    30.
 Will process     31 centers per pass.
 Leave Link 1101 at Wed Oct 19 23:03:32 2011, MaxMem=  128000000 cpu:       2.0
 (Enter /home/foresman/gdv/l1102.exe)
 Symmetrizing basis deriv contribution to polar:
 IMax=3 JMax=2 DiffMx= 0.00D+00
 Leave Link 1102 at Wed Oct 19 23:03:32 2011, MaxMem=  128000000 cpu:       0.4
 (Enter /home/foresman/gdv/l1110.exe)
 Forming Gx(P) for the SCF density, NAtomX=    30.
 Integral derivatives from FoFJK, PRISM(SPDF).
 Do as many integral derivatives as possible in FoFJK.
 G2DrvN: MDV=     127999656.
 G2DrvN: will do    31 centers at a time, making    1 passes.
 Calling FoFCou, ICntrl=  3107 FMM=F I1Cent=   0 AccDes= 0.00D+00.
 FoFJK:  IHMeth= 1 ICntrl=    3107 DoSepK=F KAlg= 0 I1Cent=   0 FoldK=F
 IRaf=       0 NMat=   1 IRICut=       1 DoRegI=T DoRafI=F ISym2E= 0.
 FoFCou: FMM=F IPFlag=           0 FMFlag=      100000 FMFlg1=           0
         NFxFlg=           0 DoJE=F BraDBF=F KetDBF=F FulRan=T
         wScrn=  0.000000 ICntrl=    3107 IOpCl=  0 I1Cent=           0 NGrid=           0
         NMat0=    1 NMatS0=      1 NMatT0=    0 NMatD0=    1 NMtDS0=    0 NMtDT0=    0
 Symmetry not used in FoFCou.
 End of G2Drv F.D. properties file   721 does not exist.
 End of G2Drv F.D. properties file   722 does not exist.
 Leave Link 1110 at Wed Oct 19 23:04:03 2011, MaxMem=  128000000 cpu:     246.0
 (Enter /home/foresman/gdv/l1002.exe)
 Minotr:  Closed shell wavefunction.
          IDoAtm=111111111111111111111111111111
          Direct CPHF calculation.
          Differentiating once with respect to electric field.
                with respect to dipole field.
          Differentiating once with respect to nuclear coordinates.
          Requested convergence is 1.0D-08 RMS, and 1.0D-07 maximum.
          Secondary convergence is 1.0D-12 RMS, and 1.0D-12 maximum.
          NewPWx=T KeepS1=F KeepF1=F KeepIn=T MapXYZ=F SortEE=F KeepMc=T.
          MDV=     127999545 using IRadAn=       2.
 Generate precomputed XC quadrature information.
 Keep R1 ints in memory in canonical form, NReq=67619516.
 FoFCou: FMM=F IPFlag=           0 FMFlag=           0 FMFlg1=           0
         NFxFlg=           0 DoJE=F BraDBF=F KetDBF=F FulRan=T
         wScrn=  0.000000 ICntrl=     600 IOpCl=  0 I1Cent=           0 NGrid=           0
         NMat0=    1 NMatS0=  11476 NMatT0=    0 NMatD0=    1 NMtDS0=    0 NMtDT0=    0
 Symmetry not used in FoFCou.
          Solving linear equations simultaneously, MaxMat=       0.
          There are    93 degrees of freedom in the 1st order CPHF.  IDoFFX=5 NUNeed=    93.
     90 vectors produced by pass  0 Test12= 5.48D-15 1.08D-09 XBig12= 7.62D+01 3.57D+00.
 AX will form    90 AO Fock derivatives at one time.
     90 vectors produced by pass  1 Test12= 5.48D-15 1.08D-09 XBig12= 1.90D+01 1.53D+00.
     90 vectors produced by pass  2 Test12= 5.48D-15 1.08D-09 XBig12= 7.26D-02 2.54D-02.
     90 vectors produced by pass  3 Test12= 5.48D-15 1.08D-09 XBig12= 9.25D-05 1.08D-03.
     90 vectors produced by pass  4 Test12= 5.48D-15 1.08D-09 XBig12= 6.98D-08 2.51D-05.
     43 vectors produced by pass  5 Test12= 5.48D-15 1.08D-09 XBig12= 4.03D-11 5.87D-07.
      3 vectors produced by pass  6 Test12= 5.48D-15 1.08D-09 XBig12= 1.70D-14 1.14D-08.
 InvSVY:  IOpt=1 It=  1 EMax= 9.77D-15
 Solved reduced A of dimension   496 with    93 vectors.
 FullF1:  Do perturbations    1 to     3.
 Isotropic polarizability for W=    0.000000      103.44 Bohr**3.
 Dipole-magnetic dipole polarizability for W=    0.000000:
                 1             2             3 
      1   0.304609D+01  0.612928D+00 -0.112669D+02
      2  -0.105364D+02 -0.512752D+01  0.217665D+02
      3   0.107358D+02 -0.201951D+02  0.229428D+01
 DQ contribution to OR G for W=    0.000000:
                 1             2             3 
      1  -0.155305D+00 -0.758332D+01 -0.412633D+02
      2   0.277951D+01 -0.246771D+01  0.736694D+02
      3   0.355304D+02 -0.860723D+02  0.262301D+01
 Optical Rotation G' tensor for W=    0.000000:
                 1             2             3 
      1  -0.145545D+01  0.188039D+01 -0.583836D+00
      2   0.188039D+01  0.205326D+01 -0.194323D+01
      3  -0.583836D+00 -0.194323D+01 -0.384962D+00
 OR G Eigenvalues:    -2.3223    -1.2997     3.8348  Iso=    -0.0709
 Eigenvectors:
   (1)   0.864048  -0.461069  -0.202080
   (2)   0.367511   0.303406   0.879136
   (3)   0.344030   0.833883  -0.431605
 w=    0.000000 a.u., Optical Rotation Beta=     -0.0709 au.
 Molar Mass =    187.2382 grams/mole, [Alpha]D (static) =      -14.65 deg.
 AAT (total):
  0.0043 -0.0049 -0.1818
 -0.0044 -0.0018  0.3940
  0.1001 -0.3750 -0.0001
 -0.0020 -0.0050  0.1575
  0.0056  0.0073 -0.1973
 -0.1042  0.0254 -0.0056
  0.0557 -0.1826 -0.1650
  0.1446 -0.1222 -0.1985
  0.0498  0.1938  0.0843
 -0.0512  0.1828 -0.1540
 -0.1406  0.1219 -0.1956
  0.0397  0.2128 -0.0913
 -0.0004  0.0085  0.4055
  0.0002 -0.0044 -0.2412
 -0.5515  0.4549  0.0118
 -0.0420 -0.0597  0.6394
  0.0630  0.0121 -0.2930
 -0.2210 -0.0697  0.0288
 -0.0061  0.0332 -1.0502
 -0.0755 -0.0308  0.1584
  1.0779  0.2200  0.0278
  0.0510 -0.0106 -0.2697
 -0.0217 -0.0406  0.4237
  0.0186 -0.4143  0.0308
 -0.0198 -0.0573 -0.0798
  0.0836  0.0247 -0.3043
 -0.0398  0.2572 -0.0794
 -0.0102  0.0304  0.2180
 -0.0010  0.0950  0.3033
 -0.1229  0.0405 -0.0885
 -0.0452  0.3618  0.0071
 -0.0522  0.0824 -0.9742
 -0.0241  0.4893  0.0398
 -0.0172  0.0987 -0.0740
 -0.0351 -0.0039 -0.0608
  0.0704  0.2355 -0.0138
  0.0406 -0.2016 -0.0927
 -0.0324 -0.0367  1.6578
  0.1000 -0.4601  0.0217
  0.0023 -0.0669  0.1235
  0.1999  0.0085 -0.8392
  0.0232 -0.1360  0.0274
 -0.0059  0.0057  0.1771
 -0.0059  0.0004  0.2256
  0.0423 -0.2790  0.0047
 -0.0502 -0.0452 -0.0734
  0.2027 -0.1232 -0.0806
 -0.0247  0.1623  0.2213
  0.0562  0.0373 -0.0567
 -0.1968  0.1176 -0.0719
 -0.0249  0.1787 -0.2195
 -0.0229 -0.1083 -0.0033
 -0.0455  0.0125  0.2730
 -0.0373 -0.2322  0.0120
 -0.0578  0.0701 -0.0199
 -0.0695  0.1853 -0.0228
  0.1953  0.2176 -0.0741
 -0.0375  0.0243  0.2063
  0.0698 -0.0597 -0.1768
 -0.2110 -0.0253  0.1167
  0.0278  0.1269  0.0063
  0.0365 -0.0167  0.2756
 -0.0334 -0.2258 -0.0111
  0.0325 -0.0383  0.2101
 -0.0499  0.0719 -0.1717
 -0.2045 -0.0161 -0.1276
  0.0499 -0.0834 -0.0259
  0.0611 -0.1968 -0.0342
  0.2008  0.2005  0.0942
  0.0569 -0.1368 -0.0498
  0.1357  0.0204  0.1054
 -0.0418 -0.0504 -0.1522
 -0.0459  0.1536 -0.0524
 -0.1511 -0.0019  0.0427
 -0.1212 -0.0776  0.1166
  0.0329  0.1269 -0.2100
 -0.1504 -0.0804 -0.0146
  0.0811  0.0910  0.0651
 -0.0229 -0.2507  0.0196
  0.1591 -0.0804 -0.0734
 -0.1256 -0.1849  0.0371
 -0.0007  0.0679 -0.0069
 -0.1183 -0.0251 -0.0292
  0.0039 -0.1651  0.0042
  0.0148 -0.2296  0.0563
  0.1688  0.0142 -0.0656
  0.1246 -0.1615  0.0446
  0.0512  0.0926  0.1507
 -0.1595  0.0342  0.0482
 -0.0352 -0.0257 -0.1395
 End of Minotr F.D. properties file   721 does not exist.
 End of Minotr F.D. properties file   722 does not exist.
 Leave Link 1002 at Wed Oct 19 23:04:31 2011, MaxMem=  128000000 cpu:     230.6
 (Enter /home/foresman/gdv/l601.exe)
 Copying SCF densities to generalized density rwf, IOpCl= 0 IROHF=0.

 **********************************************************************

            Population analysis using the SCF density.

 **********************************************************************

 Orbital symmetries:
       Occupied  (A) (A) (A) (A) (A) (A) (A) (A) (A) (A) (A) (A)
                 (A) (A) (A) (A) (A) (A) (A) (A) (A) (A) (A) (A)
                 (A) (A) (A) (A) (A) (A) (A) (A) (A) (A) (A) (A)
                 (A) (A) (A) (A) (A) (A) (A) (A) (A) (A) (A) (A)
                 (A) (A) (A)
       Virtual   (A) (A) (A) (A) (A) (A) (A) (A) (A) (A) (A) (A)
                 (A) (A) (A) (A) (A) (A) (A) (A) (A) (A) (A) (A)
                 (A) (A) (A) (A) (A) (A) (A) (A) (A) (A) (A) (A)
                 (A) (A) (A) (A) (A) (A) (A) (A) (A) (A) (A) (A)
                 (A) (A) (A) (A) (A) (A) (A) (A) (A) (A) (A) (A)
                 (A) (A) (A) (A) (A) (A) (A) (A) (A) (A) (A) (A)
                 (A) (A) (A) (A) (A) (A) (A) (A) (A) (A) (A) (A)
                 (A) (A) (A) (A) (A) (A) (A) (A) (A) (A) (A) (A)
                 (A) (A) (A) (A)
 The electronic state is 1-A.
 Alpha  occ. eigenvalues --  -19.05949 -19.03478 -18.99750 -14.28008 -10.26098
 Alpha  occ. eigenvalues --  -10.18833 -10.18540 -10.16605 -10.16029 -10.13448
 Alpha  occ. eigenvalues --  -10.11036 -10.10210 -10.10160  -1.07961  -1.01678
 Alpha  occ. eigenvalues --   -0.99609  -0.94429  -0.81086  -0.78299  -0.74177
 Alpha  occ. eigenvalues --   -0.69064  -0.68667  -0.65461  -0.61143  -0.58641
 Alpha  occ. eigenvalues --   -0.54992  -0.50865  -0.49918  -0.47504  -0.45672
 Alpha  occ. eigenvalues --   -0.44933  -0.44273  -0.44123  -0.43364  -0.42036
 Alpha  occ. eigenvalues --   -0.40295  -0.39876  -0.39059  -0.38522  -0.38267
 Alpha  occ. eigenvalues --   -0.37185  -0.36228  -0.35753  -0.34166  -0.34036
 Alpha  occ. eigenvalues --   -0.32476  -0.31387  -0.26887  -0.25975  -0.24602
 Alpha  occ. eigenvalues --   -0.22961
 Alpha virt. eigenvalues --    0.05582   0.08113   0.09883   0.11548   0.11855
 Alpha virt. eigenvalues --    0.12622   0.15154   0.15852   0.16679   0.17336
 Alpha virt. eigenvalues --    0.17422   0.17814   0.18847   0.19556   0.19993
 Alpha virt. eigenvalues --    0.20896   0.21260   0.21880   0.21920   0.23143
 Alpha virt. eigenvalues --    0.23910   0.24583   0.25357   0.25742   0.27168
 Alpha virt. eigenvalues --    0.28164   0.28774   0.29189   0.30413   0.42054
 Alpha virt. eigenvalues --    0.49030   0.64715   0.65792   0.65967   0.66296
 Alpha virt. eigenvalues --    0.67912   0.69167   0.69541   0.72172   0.74189
 Alpha virt. eigenvalues --    0.74993   0.75984   0.76835   0.77269   0.77558
 Alpha virt. eigenvalues --    0.79034   0.81227   0.82988   0.86105   0.87059
 Alpha virt. eigenvalues --    0.89441   0.92839   0.94405   0.95385   0.96450
 Alpha virt. eigenvalues --    0.98092   0.98888   1.00567   1.02142   1.03750
 Alpha virt. eigenvalues --    1.06424   1.07079   1.07266   1.08391   1.08698
 Alpha virt. eigenvalues --    1.09750   1.10514   1.10862   1.11828   1.13193
 Alpha virt. eigenvalues --    1.14465   1.14969   1.16140   1.17771   1.21863
 Alpha virt. eigenvalues --    1.28538   1.44262   1.53279   1.55607   1.58055
 Alpha virt. eigenvalues --    1.61747   1.63661   1.66519   1.70850   1.72302
 Alpha virt. eigenvalues --    1.74271   1.76364   1.80764   1.83386   1.93926
 Alpha virt. eigenvalues --    1.98892   1.98941   2.11147   2.13921   2.26550
 Alpha virt. eigenvalues --    2.34831   2.84235   3.09766   3.31299   3.41193
          Condensed to atoms (all electrons):
              1          2          3          4          5          6
     1  C    5.286197   0.289375   0.249212   0.249089   0.196553  -0.050358
     2  C    0.289375   5.353191  -0.082089  -0.081848  -0.038925   0.003840
     3  C    0.249212  -0.082089   5.474310  -0.084606  -0.036111  -0.007907
     4  C    0.249089  -0.081848  -0.084606   5.473814  -0.036061  -0.007938
     5  O    0.196553  -0.038925  -0.036111  -0.036061   8.328719   0.230188
     6  C   -0.050358   0.003840  -0.007907  -0.007938   0.230188   4.284552
     7  O    0.001288   0.000063  -0.009657  -0.009572  -0.045578   0.471464
     8  N    0.002798  -0.000045  -0.000285  -0.000292  -0.078820   0.195582
     9  C   -0.000143  -0.000044   0.000023   0.000030   0.009825  -0.030492
    10  C   -0.000004   0.000000   0.000000   0.000000   0.000282   0.003136
    11  C    0.000001   0.000000   0.000000   0.000000  -0.000016   0.004906
    12  C   -0.000071   0.000001   0.000004   0.000004   0.001510  -0.045710
    13  O    0.000000   0.000000   0.000000   0.000000   0.000000  -0.000007
    14  H    0.000000   0.000000   0.000000   0.000000   0.000000  -0.000004
    15  H   -0.044592   0.350678   0.001214   0.001177   0.001897  -0.000039
    16  H   -0.038417   0.360242   0.004539  -0.003555   0.001964  -0.000003
    17  H   -0.038417   0.360441  -0.003550   0.004533   0.001964  -0.000006
    18  H   -0.035850  -0.000427   0.340391   0.000847   0.001570   0.000335
    19  H   -0.040224  -0.003149   0.358182   0.004341   0.001045   0.000462
    20  H   -0.036554   0.003575   0.343044  -0.004036  -0.003589   0.001977
    21  H   -0.035722  -0.000435   0.000831   0.340649   0.001569   0.000334
    22  H   -0.036521   0.003581  -0.004063   0.343275  -0.003612   0.001950
    23  H   -0.040263  -0.003161   0.004340   0.358204   0.001033   0.000476
    24  H   -0.000051   0.000024   0.000010  -0.000014   0.004012  -0.001424
    25  H   -0.000020   0.000006  -0.000009   0.000004   0.001760  -0.002195
    26  H    0.000000   0.000000   0.000000   0.000000   0.000000  -0.000012
    27  H    0.000000   0.000000   0.000000   0.000000   0.000001  -0.000160
    28  H    0.000000   0.000000   0.000000   0.000000   0.000000  -0.000187
    29  H    0.000001   0.000000   0.000000  -0.000001  -0.000004  -0.001446
    30  H    0.000001   0.000000  -0.000001   0.000001   0.000059   0.000736
              7          8          9         10         11         12
     1  C    0.001288   0.002798  -0.000143  -0.000004   0.000001  -0.000071
     2  C    0.000063  -0.000045  -0.000044   0.000000   0.000000   0.000001
     3  C   -0.009657  -0.000285   0.000023   0.000000   0.000000   0.000004
     4  C   -0.009572  -0.000292   0.000030   0.000000   0.000000   0.000004
     5  O   -0.045578  -0.078820   0.009825   0.000282  -0.000016   0.001510
     6  C    0.471464   0.195582  -0.030492   0.003136   0.004906  -0.045710
     7  O    8.140994  -0.070254   0.001137  -0.000029   0.000166   0.003113
     8  N   -0.070254   7.442483   0.227261  -0.049251  -0.039338   0.202848
     9  C    0.001137   0.227261   5.212943   0.194784  -0.068411  -0.062692
    10  C   -0.000029  -0.049251   0.194784   5.659909   0.189279  -0.132435
    11  C    0.000166  -0.039338  -0.068411   0.189279   5.258240   0.176942
    12  C    0.003113   0.202848  -0.062692  -0.132435   0.176942   5.402405
    13  O    0.000000   0.000583   0.001574  -0.037331   0.289037  -0.039630
    14  H    0.000000  -0.000017   0.000107  -0.005477  -0.056121  -0.004581
    15  H    0.000002   0.000000   0.000001   0.000000   0.000000   0.000000
    16  H    0.000001  -0.000006   0.000006   0.000000   0.000000   0.000000
    17  H    0.000001  -0.000006   0.000024   0.000000   0.000000   0.000000
    18  H    0.000085   0.000001   0.000000   0.000000   0.000000   0.000000
    19  H    0.000034  -0.000009   0.000003   0.000000   0.000000   0.000000
    20  H    0.023790   0.000142  -0.000011   0.000000   0.000000   0.000003
    21  H    0.000081   0.000001   0.000000   0.000000   0.000000   0.000000
    22  H    0.023587   0.000140  -0.000009   0.000000   0.000000   0.000003
    23  H    0.000033  -0.000006  -0.000002   0.000000   0.000000   0.000000
    24  H    0.000014  -0.036951   0.368144  -0.028421   0.003298   0.002008
    25  H    0.000011  -0.041852   0.367042  -0.041269  -0.001407   0.002771
    26  H    0.000000   0.002020  -0.031277   0.373914  -0.029031   0.004652
    27  H    0.000000   0.001556  -0.037090   0.356450  -0.044563  -0.000535
    28  H    0.000002   0.003154   0.004728  -0.055533   0.371016  -0.053991
    29  H    0.000403  -0.040197   0.003331  -0.002571  -0.047275   0.352397
    30  H    0.005764  -0.037686   0.002269   0.004696  -0.022873   0.365125
             13         14         15         16         17         18
     1  C    0.000000   0.000000  -0.044592  -0.038417  -0.038417  -0.035850
     2  C    0.000000   0.000000   0.350678   0.360242   0.360441  -0.000427
     3  C    0.000000   0.000000   0.001214   0.004539  -0.003550   0.340391
     4  C    0.000000   0.000000   0.001177  -0.003555   0.004533   0.000847
     5  O    0.000000   0.000000   0.001897   0.001964   0.001964   0.001570
     6  C   -0.000007  -0.000004  -0.000039  -0.000003  -0.000006   0.000335
     7  O    0.000000   0.000000   0.000002   0.000001   0.000001   0.000085
     8  N    0.000583  -0.000017   0.000000  -0.000006  -0.000006   0.000001
     9  C    0.001574   0.000107   0.000001   0.000006   0.000024   0.000000
    10  C   -0.037331  -0.005477   0.000000   0.000000   0.000000   0.000000
    11  C    0.289037  -0.056121   0.000000   0.000000   0.000000   0.000000
    12  C   -0.039630  -0.004581   0.000000   0.000000   0.000000   0.000000
    13  O    8.115000   0.244836   0.000000   0.000000   0.000000   0.000000
    14  H    0.244836   0.473757   0.000000   0.000000   0.000000   0.000000
    15  H    0.000000   0.000000   0.548404  -0.023891  -0.023873   0.001655
    16  H    0.000000   0.000000  -0.023891   0.525531  -0.025947  -0.000082
    17  H    0.000000   0.000000  -0.023873  -0.025947   0.524718   0.000158
    18  H    0.000000   0.000000   0.001655  -0.000082   0.000158   0.553300
    19  H    0.000000   0.000000   0.000122  -0.000049   0.003755  -0.024653
    20  H    0.000000   0.000000   0.000011  -0.000085  -0.000045  -0.020622
    21  H    0.000000   0.000000   0.001654   0.000156  -0.000082   0.001175
    22  H    0.000000   0.000000   0.000011  -0.000047  -0.000085   0.000220
    23  H    0.000000   0.000000   0.000124   0.003761  -0.000048  -0.000069
    24  H   -0.000011  -0.000001   0.000000   0.000102  -0.000015   0.000000
    25  H   -0.000013   0.000002   0.000000  -0.000009   0.000047   0.000000
    26  H    0.001089  -0.000286   0.000000   0.000000   0.000000   0.000000
    27  H   -0.000868   0.005886   0.000000   0.000000   0.000000   0.000000
    28  H   -0.032571   0.006398   0.000000   0.000000   0.000000   0.000000
    29  H    0.000431   0.006037   0.000000   0.000000   0.000000   0.000000
    30  H    0.001015  -0.000244   0.000000   0.000000   0.000000   0.000000
             19         20         21         22         23         24
     1  C   -0.040224  -0.036554  -0.035722  -0.036521  -0.040263  -0.000051
     2  C   -0.003149   0.003575  -0.000435   0.003581  -0.003161   0.000024
     3  C    0.358182   0.343044   0.000831  -0.004063   0.004340   0.000010
     4  C    0.004341  -0.004036   0.340649   0.343275   0.358204  -0.000014
     5  O    0.001045  -0.003589   0.001569  -0.003612   0.001033   0.004012
     6  C    0.000462   0.001977   0.000334   0.001950   0.000476  -0.001424
     7  O    0.000034   0.023790   0.000081   0.023587   0.000033   0.000014
     8  N   -0.000009   0.000142   0.000001   0.000140  -0.000006  -0.036951
     9  C    0.000003  -0.000011   0.000000  -0.000009  -0.000002   0.368144
    10  C    0.000000   0.000000   0.000000   0.000000   0.000000  -0.028421
    11  C    0.000000   0.000000   0.000000   0.000000   0.000000   0.003298
    12  C    0.000000   0.000003   0.000000   0.000003   0.000000   0.002008
    13  O    0.000000   0.000000   0.000000   0.000000   0.000000  -0.000011
    14  H    0.000000   0.000000   0.000000   0.000000   0.000000  -0.000001
    15  H    0.000122   0.000011   0.001654   0.000011   0.000124   0.000000
    16  H   -0.000049  -0.000085   0.000156  -0.000047   0.003761   0.000102
    17  H    0.003755  -0.000045  -0.000082  -0.000085  -0.000048  -0.000015
    18  H   -0.024653  -0.020622   0.001175   0.000220  -0.000069   0.000000
    19  H    0.535455  -0.023346  -0.000069   0.000008  -0.000098  -0.000001
    20  H   -0.023346   0.483279   0.000216   0.002908   0.000009  -0.000001
    21  H   -0.000069   0.000216   0.552917  -0.020758  -0.024687   0.000000
    22  H    0.000008   0.002908  -0.020758   0.483492  -0.023380   0.000003
    23  H   -0.000098   0.000009  -0.024687  -0.023380   0.535802   0.000017
    24  H   -0.000001  -0.000001   0.000000   0.000003   0.000017   0.511918
    25  H    0.000012   0.000004   0.000000  -0.000001   0.000000  -0.038665
    26  H    0.000000   0.000000   0.000000   0.000000   0.000000   0.000685
    27  H    0.000000   0.000000   0.000000   0.000000   0.000000  -0.005155
    28  H    0.000000   0.000000   0.000000   0.000000   0.000000  -0.000067
    29  H    0.000000  -0.000001   0.000000   0.000003   0.000000   0.000275
    30  H    0.000000   0.000010   0.000000  -0.000004   0.000000  -0.000112
             25         26         27         28         29         30
     1  C   -0.000020   0.000000   0.000000   0.000000   0.000001   0.000001
     2  C    0.000006   0.000000   0.000000   0.000000   0.000000   0.000000
     3  C   -0.000009   0.000000   0.000000   0.000000   0.000000  -0.000001
     4  C    0.000004   0.000000   0.000000   0.000000  -0.000001   0.000001
     5  O    0.001760   0.000000   0.000001   0.000000  -0.000004   0.000059
     6  C   -0.002195  -0.000012  -0.000160  -0.000187  -0.001446   0.000736
     7  O    0.000011   0.000000   0.000000   0.000002   0.000403   0.005764
     8  N   -0.041852   0.002020   0.001556   0.003154  -0.040197  -0.037686
     9  C    0.367042  -0.031277  -0.037090   0.004728   0.003331   0.002269
    10  C   -0.041269   0.373914   0.356450  -0.055533  -0.002571   0.004696
    11  C   -0.001407  -0.029031  -0.044563   0.371016  -0.047275  -0.022873
    12  C    0.002771   0.004652  -0.000535  -0.053991   0.352397   0.365125
    13  O   -0.000013   0.001089  -0.000868  -0.032571   0.000431   0.001015
    14  H    0.000002  -0.000286   0.005886   0.006398   0.006037  -0.000244
    15  H    0.000000   0.000000   0.000000   0.000000   0.000000   0.000000
    16  H   -0.000009   0.000000   0.000000   0.000000   0.000000   0.000000
    17  H    0.000047   0.000000   0.000000   0.000000   0.000000   0.000000
    18  H    0.000000   0.000000   0.000000   0.000000   0.000000   0.000000
    19  H    0.000012   0.000000   0.000000   0.000000   0.000000   0.000000
    20  H    0.000004   0.000000   0.000000   0.000000  -0.000001   0.000010
    21  H    0.000000   0.000000   0.000000   0.000000   0.000000   0.000000
    22  H   -0.000001   0.000000   0.000000   0.000000   0.000003  -0.000004
    23  H    0.000000   0.000000   0.000000   0.000000   0.000000   0.000000
    24  H   -0.038665   0.000685  -0.005155  -0.000067   0.000275  -0.000112
    25  H    0.539859  -0.002053   0.003219   0.000869  -0.000224   0.000160
    26  H   -0.002053   0.498577  -0.025306  -0.004159  -0.000129  -0.000050
    27  H    0.003219  -0.025306   0.547302   0.003870   0.001560  -0.000024
    28  H    0.000869  -0.004159   0.003870   0.532259   0.003712  -0.004032
    29  H   -0.000224  -0.000129   0.001560   0.003712   0.565262  -0.036560
    30  H    0.000160  -0.000050  -0.000024  -0.004032  -0.036560   0.488889
 Mulliken charges:
              1
     1  C    0.122692
     2  C   -0.514893
     3  C   -0.547822
     4  C   -0.548046
     5  O   -0.541234
     6  C    0.947951
     7  O   -0.536942
     8  N   -0.683557
     9  C   -0.163060
    10  C   -0.430131
    11  C    0.016150
    12  C   -0.174140
    13  O   -0.543134
    14  H    0.329710
    15  H    0.185447
    16  H    0.195788
    17  H    0.196434
    18  H    0.181966
    19  H    0.188179
    20  H    0.229321
    21  H    0.182171
    22  H    0.229297
    23  H    0.187915
    24  H    0.220379
    25  H    0.211950
    26  H    0.211366
    27  H    0.193857
    28  H    0.224531
    29  H    0.194994
    30  H    0.232863
 Sum of Mulliken charges =   0.00000
 Mulliken charges with hydrogens summed into heavy atoms:
              1
     1  C    0.122692
     2  C    0.062776
     3  C    0.051643
     4  C    0.051337
     5  O   -0.541234
     6  C    0.947951
     7  O   -0.536942
     8  N   -0.683557
     9  C    0.269269
    10  C   -0.024908
    11  C    0.240681
    12  C    0.253717
    13  O   -0.213424
 Sum of Mulliken charges with hydrogens summed into heavy atoms =   0.00000
 APT charges:
              1
     1  C    0.653572
     2  C   -0.028386
     3  C   -0.108001
     4  C   -0.107936
     5  O   -0.969916
     6  C    1.439354
     7  O   -0.783969
     8  N   -0.871379
     9  C    0.347218
    10  C   -0.028103
    11  C    0.491558
    12  C    0.259574
    13  O   -0.517478
    14  H    0.214380
    15  H   -0.001332
    16  H    0.008247
    17  H    0.008565
    18  H   -0.000414
    19  H    0.001234
    20  H    0.080087
    21  H   -0.000453
    22  H    0.079681
    23  H    0.000842
    24  H   -0.015547
    25  H   -0.041957
    26  H    0.000249
    27  H   -0.022425
    28  H   -0.023648
    29  H   -0.072525
    30  H    0.008909
 Sum of APT charges =   0.00000
 APT charges with hydrogens summed into heavy atoms:
              1
     1  C    0.653572
     2  C   -0.012906
     3  C   -0.027094
     4  C   -0.027866
     5  O   -0.969916
     6  C    1.439354
     7  O   -0.783969
     8  N   -0.871379
     9  C    0.289714
    10  C   -0.050280
    11  C    0.467910
    12  C    0.195958
    13  O   -0.303098
 Sum of APT charges with hydrogens summed into heavy atoms =   0.00000
 Electronic spatial extent (au):  <R**2>=           3329.9942
 Charge=              0.0000 electrons
 Dipole moment (field-independent basis, Debye):
    X=              0.0870    Y=              2.5437    Z=             -0.9529  Tot=              2.7177
 Quadrupole moment (field-independent basis, Debye-Ang):
   XX=            -79.0667   YY=            -82.7921   ZZ=            -75.9870
   XY=             -0.6079   XZ=              6.2869   YZ=              0.5686
 Traceless Quadrupole moment (field-independent basis, Debye-Ang):
   XX=              0.2152   YY=             -3.5102   ZZ=              3.2950
   XY=             -0.6079   XZ=              6.2869   YZ=              0.5686
 Octapole moment (field-independent basis, Debye-Ang**2):
  XXX=             55.3886  YYY=              7.2211  ZZZ=             -1.0122  XYY=            -12.8970
  XXY=              5.8153  XXZ=            -32.2317  XZZ=            -15.4776  YZZ=             -1.6456
  YYZ=              0.8446  XYZ=             -4.9320
 Hexadecapole moment (field-independent basis, Debye-Ang**3):
 XXXX=          -3629.1535 YYYY=           -609.9325 ZZZZ=           -283.4564 XXXY=            -33.0029
 XXXZ=            164.1842 YYYX=              9.4441 YYYZ=             -0.2939 ZZZX=              4.6831
 ZZZY=              1.6654 XXYY=           -667.1071 XXZZ=           -579.2246 YYZZ=           -141.8875
 XXYZ=             22.7790 YYXZ=             -0.7027 ZZXY=              8.8299
 N-N= 8.693382423631D+02 E-N=-3.208046018641D+03  KE= 6.248433562078D+02
  Exact polarizability: 130.895  -0.844  95.247   2.768   1.085  84.190
 Approx polarizability: 153.316  -3.010 145.132   3.086   1.999 117.092
 Calculating spin-rotation constants.
 Leave Link  601 at Wed Oct 19 23:04:36 2011, MaxMem=  128000000 cpu:      31.8
 (Enter /home/foresman/gdv/l701.exe)
 Compute integral second derivatives.
 ... and contract with generalized density number  0.
 Leave Link  701 at Wed Oct 19 23:04:36 2011, MaxMem=  128000000 cpu:       1.3
 (Enter /home/foresman/gdv/l702.exe)
 L702 exits ... SP integral derivatives will be done elsewhere.
 Leave Link  702 at Wed Oct 19 23:04:36 2011, MaxMem=  128000000 cpu:       0.3
 (Enter /home/foresman/gdv/l703.exe)
 Compute integral second derivatives, UseDBF=F ICtDFT=           0.
 Integral derivatives from FoFJK, PRISM(SPDF).
 Calling FoFJK, ICntrl=    100127 FMM=F ISym2X=0 I1Cent= 0 IOpClX= 0 NMat=1 NMatS=1 NMatT=0.
 FoFJK:  IHMeth= 1 ICntrl=  100127 DoSepK=F KAlg= 0 I1Cent=   0 FoldK=F
 IRaf=       0 NMat=   1 IRICut=       1 DoRegI=T DoRafI=F ISym2E= 0.
 FoFCou: FMM=F IPFlag=           0 FMFlag=      100000 FMFlg1=         800
         NFxFlg=           0 DoJE=F BraDBF=F KetDBF=F FulRan=T
         wScrn=  0.000000 ICntrl=  100127 IOpCl=  0 I1Cent=           0 NGrid=           0
         NMat0=    1 NMatS0=      1 NMatT0=    0 NMatD0=    1 NMtDS0=    0 NMtDT0=    0
 Symmetry not used in FoFCou.
 Leave Link  703 at Wed Oct 19 23:05:09 2011, MaxMem=  128000000 cpu:     266.3
 (Enter /home/foresman/gdv/l716.exe)
 Dipole        = 3.42372102D-02 1.00075223D+00-3.74890502D-01
 Polarizability= 1.30895498D+02-8.43786707D-01 9.52471191D+01
                 2.76781688D+00 1.08484539D+00 8.41897995D+01
 AAT           = 4.29457088D-03-4.85032100D-03-1.81810271D-01
                -4.38297011D-03-1.77107679D-03 3.94035874D-01
                 1.00090610D-01-3.75029044D-01-1.33937628D-04
                -1.97954086D-03-4.97568517D-03 1.57539711D-01
                 5.55062685D-03 7.30144533D-03-1.97257830D-01
                -1.04184535D-01 2.54224486D-02-5.55945758D-03
                 5.56799639D-02-1.82636346D-01-1.64972053D-01
                 1.44631529D-01-1.22236634D-01-1.98454200D-01
                 4.98034788D-02 1.93767183D-01 8.43079146D-02
                -5.12357379D-02 1.82808955D-01-1.53962039D-01
                -1.40603072D-01 1.21923010D-01-1.95614792D-01
                 3.97289243D-02 2.12752045D-01-9.13061768D-02
                -3.71445877D-04 8.53496317D-03 4.05538967D-01
                 1.75795832D-04-4.40170986D-03-2.41165431D-01
                -5.51536715D-01 4.54919307D-01 1.17596899D-02
                -4.19618594D-02-5.97442105D-02 6.39406934D-01
                 6.30150552D-02 1.21008438D-02-2.93015614D-01
                -2.20967196D-01-6.97422102D-02 2.88190522D-02
                -6.12757174D-03 3.32281185D-02-1.05015508D+00
                -7.54828579D-02-3.07579571D-02 1.58364944D-01
                 1.07787599D+00 2.20010297D-01 2.77990764D-02
                 5.09505179D-02-1.06300899D-02-2.69696683D-01
                -2.17000374D-02-4.05539301D-02 4.23661939D-01
                 1.85686934D-02-4.14347868D-01 3.07792881D-02
                -1.98281936D-02-5.72839876D-02-7.97953798D-02
                 8.36398316D-02 2.47021668D-02-3.04326098D-01
                -3.98334469D-02 2.57226171D-01-7.94032378D-02
                -1.01593383D-02 3.04254247D-02 2.18027705D-01
                -9.61849101D-04 9.49627718D-02 3.03344002D-01
                -1.22912808D-01 4.05308555D-02-8.84780684D-02
                -4.52393792D-02 3.61813547D-01 7.14423402D-03
                -5.21701815D-02 8.24250875D-02-9.74206083D-01
                -2.41295973D-02 4.89303430D-01 3.97757421D-02
                -1.72345545D-02 9.86959043D-02-7.39618990D-02
                -3.50634337D-02-3.90666791D-03-6.08397406D-02
                 7.04325389D-02 2.35465398D-01-1.38180060D-02
                 4.05885999D-02-2.01606873D-01-9.26956326D-02
                -3.23506699D-02-3.67090498D-02 1.65781269D+00
                 9.99710250D-02-4.60091541D-01 2.16545808D-02
                 2.28071367D-03-6.69487542D-02 1.23486074D-01
                 1.99905932D-01 8.54006281D-03-8.39193974D-01
                 2.31630067D-02-1.35956432D-01 2.74300322D-02
                -5.89175756D-03 5.74235543D-03 1.77076051D-01
                -5.92799512D-03 3.53204701D-04 2.25628354D-01
                 4.23439608D-02-2.79007014D-01 4.74673566D-03
                -5.02186426D-02-4.51842552D-02-7.33654196D-02
                 2.02728268D-01-1.23157737D-01-8.05807408D-02
                -2.46632731D-02 1.62265775D-01 2.21278342D-01
                 5.62030174D-02 3.73283308D-02-5.66765402D-02
                -1.96818882D-01 1.17588443D-01-7.19252579D-02
                -2.49258948D-02 1.78716110D-01-2.19492133D-01
                -2.29350803D-02-1.08274237D-01-3.30717321D-03
                -4.54933916D-02 1.24672517D-02 2.73016612D-01
                -3.72955949D-02-2.32173123D-01 1.19521832D-02
                -5.78045967D-02 7.00572620D-02-1.98728539D-02
                -6.95242453D-02 1.85304044D-01-2.28027103D-02
                 1.95325501D-01 2.17562398D-01-7.41234370D-02
                -3.75301354D-02 2.42679287D-02 2.06310376D-01
                 6.97580014D-02-5.97447306D-02-1.76799206D-01
                -2.10965586D-01-2.52515286D-02 1.16705736D-01
                 2.77612972D-02 1.26863563D-01 6.33792458D-03
                 3.65426269D-02-1.67386092D-02 2.75617461D-01
                -3.33816614D-02-2.25844914D-01-1.11126062D-02
                 3.25481500D-02-3.82727309D-02 2.10087740D-01
                -4.98636068D-02 7.18814889D-02-1.71744782D-01
                -2.04466958D-01-1.60738810D-02-1.27598773D-01
                 4.98539479D-02-8.34337431D-02-2.59394455D-02
                 6.11401967D-02-1.96768057D-01-3.41639658D-02
                 2.00843513D-01 2.00504189D-01 9.41522773D-02
                 5.69145282D-02-1.36761248D-01-4.97646948D-02
                 1.35703979D-01 2.03637400D-02 1.05405999D-01
                -4.17780235D-02-5.04141036D-02-1.52204402D-01
                -4.59199726D-02 1.53640193D-01-5.24494227D-02
                -1.51062196D-01-1.88343093D-03 4.27068035D-02
                -1.21171784D-01-7.75948502D-02 1.16595535D-01
                 3.28824047D-02 1.26921847D-01-2.10034372D-01
                -1.50428083D-01-8.03921114D-02-1.46236459D-02
                 8.11297868D-02 9.10465188D-02 6.50826958D-02
                -2.29469896D-02-2.50653121D-01 1.96112313D-02
                 1.59083544D-01-8.04042835D-02-7.34454673D-02
[...]
 7,-0.00000667,0.00001560,-0.00003521,0.00001600,0.00004932,-0.00000089
 ,-0.00000589,-0.00000718,0.00000783,0.00002966,0.00003424,-0.00003746,
 -0.00000039,0.00002630,0.00001592,0.00008375,-0.00001479,-0.00002849,-
 0.00001768,0.00002968,0.07974268,0.09382443,-0.00028295,-0.00015761,0.
 00002269,0.00002776,0.00000524,-0.00007263,0.00003943,0.00015813,0.000
 00994,-0.00000675,0.00002005,0.00003806,-0.00169662,0.00060793,-0.0000
 4739,0.00291279,0.00215783,0.00141841,-0.00019334,-0.00075166,-0.00025
 866,0.00201526,-0.00486699,0.00154837,0.10734296,0.05476863,-0.1240847
 6,-0.01699044,-0.00631430,0.00855675,-0.00108013,-0.00249095,-0.001627
 77,-0.00075533,-0.00011681,-0.00122368,-0.00153779,-0.00011436,-0.0000
 4349,0.00013200,-0.00005698,0.00011795,-0.00002371,0.00006036,0.000039
 86,-0.00008913,-0.00009904,0.00008700,0.00000160,-0.00001110,-0.000095
 37,-0.00003025,0.00000353,0.00005948,0.00002980,-0.00000330,0.00000568
 ,-0.00001233,0.00004119,0.00003859,-0.00001326,0.00002676,-0.00000874,
 -0.00000066,0.00005950,-0.00001355,0.00000421,-0.00002734,0.00002986,-
 0.11439918,-0.05665989,0.13117495,-0.00021617,-0.00044429,-0.00026641,
 0.00000380,0.00006194,0.00006705,0.00000156,0.00013390,0.00002807,-0.0
 0001277,0.00009867,0.00007935,0.00153439,0.00048609,0.00070727,-0.0018
 5771,-0.00357458,-0.00287324,-0.00062468,0.00113093,0.00103162,-0.0148
 2549,0.01771442,-0.01717909,-0.07269026,0.01763127,-0.06636023,-0.0038
 4505,0.00402702,-0.01324082,0.00079526,0.00119851,-0.00072525,0.000400
 85,0.00187531,-0.00101768,-0.00021284,-0.00054505,0.00024148,0.0000571
 2,0.00010685,0.00021255,0.00002916,0.00002309,0.00000426,-0.00000136,-
 0.00001930,0.00001128,0.00000209,-0.00001472,-0.00004117,0.00001469,0.
 00000431,0.00005775,0.00003675,-0.00001740,0.00002030,-0.00000361,-0.0
 0006176,-0.00012219,0.00003038,0.00004279,-0.00001818,-0.00001569,-0.0
 0009363,0.00001186,0.00001414,-0.00000617,-0.00000678,0.00896035,-0.00
 873985,0.02458035,0.08369109,-0.00005296,0.00019016,-0.00007449,-0.000
 01369,-0.00011225,0.00006157,0.00003070,-0.00012281,-0.00002679,0.0000
 4646,0.00006348,0.00007559,-0.00209819,0.00101575,-0.00086350,0.004010
 25,0.00427798,0.00487419,0.00070691,-0.00174682,-0.00170882,0.01752812
 ,-0.01698137,0.01516713,0.01765244,-0.07018180,0.07153471,-0.00780470,
 0.00718642,-0.02576668,0.00083795,-0.00029094,-0.00073900,-0.00169676,
 -0.00229774,0.00088920,-0.00061074,0.00007179,0.00037321,0.00036780,-0
 .00020476,0.00008843,-0.00002563,0.00005317,-0.00002155,0.00000523,-0.
 00002102,0.00001501,-0.00005936,0.00000967,-0.00010891,-0.00003666,0.0
 0002567,-0.00003662,-0.00001541,0.00002042,-0.00007657,-0.00000086,0.0
 0009616,0.00015305,-0.00003181,0.00002324,-0.00004440,0.00001407,0.000
 12986,-0.00000829,0.00002044,0.00001005,-0.00000625,0.00265603,-0.0028
 9657,0.01359094,-0.02934937,0.08266881,0.00000587,-0.00010630,-0.00023
 130,0.00001057,0.00004594,-0.00004534,0.00000867,-0.00002542,-0.000009
 41,0.00004676,0.00003219,0.00001006,0.00084594,-0.00046791,0.00045338,
 -0.00114888,-0.00059478,0.00040498,0.00050626,0.00020659,-0.00047633,0
 .00107993,-0.00227678,0.01219550,-0.06660892,0.07326786,-0.26315209,-0
 .00305274,0.00355211,-0.01469584,0.00031435,0.00031550,-0.00015188,0.0
 0034433,-0.00025327,-0.00074810,-0.00037482,-0.00017801,0.00021990,0.0
 0027024,-0.00003881,0.00010448,0.00001669,-0.00003244,0.00000933,-0.00
 000694,0.00002091,-0.00002311,0.00001987,-0.00000155,0.00008627,-0.000
 00279,-0.00000485,-0.00000196,-0.00000186,0.00000032,0.00003418,0.0000
 0453,-0.00001010,-0.00002873,0.00000590,0.00002162,0.00000681,0.000009
 73,-0.00004473,0.00000581,-0.00002318,-0.00001694,0.00000776,-0.005314
 21,0.00525472,-0.01744318,0.07511229,-0.07598782,0.28238823,0.00001717
 ,-0.00001755,-0.00001591,0.00000095,0.00000489,0.00000403,-0.00000637,
 -0.00000024,-0.00000069,-0.00000257,0.00000768,0.00000171,0.00015909,0
 .00001523,0.00003548,0.00056801,0.00002286,-0.00003919,0.00036084,-0.0
 0027599,-0.00006505,-0.00230737,-0.00321952,-0.00174925,0.00694212,-0.
 01734458,0.00428859,-0.08085244,0.08690957,-0.02028231,-0.01097223,0.0
 3267831,-0.00628604,-0.00591288,0.00008439,0.00272482,0.00189472,-0.00
 245787,-0.00033033,-0.00020156,0.00023754,0.00024153,0.00000159,0.0000
 0245,0.00000023,0.00000182,-0.00000224,0.00000207,0.00000123,-0.000000
 86,-0.00000408,0.00000465,0.00000120,-0.00000012,-0.00000114,-0.000000
 42,-0.00000093,0.00000102,-0.00000544,0.00000097,0.00000377,0.00000108
 ,0.00000036,0.00000351,-0.00000115,-0.00000304,-0.00000054,0.00000062,
 -0.00000081,-0.00054475,-0.00019501,0.00017008,0.00097817,0.00082469,0
 .00027701,0.08750760,0.00018482,0.00026970,0.00015421,-0.00000695,-0.0
 0004328,-0.00001266,-0.00001648,-0.00006818,-0.00002843,-0.00001872,-0
 .00006645,-0.00002812,-0.00054808,-0.00031910,-0.00028118,0.00122187,0
 .00104581,0.00049642,0.00009459,-0.00085027,-0.00025278,-0.00191090,-0
 .00275373,-0.00194623,0.00975797,-0.01708009,0.00605630,0.08720169,-0.
 27694070,0.04979594,-0.00185862,-0.00115616,0.00026240,-0.00075447,0.0
 0046005,-0.00077049,0.00089942,0.00080753,0.00039869,-0.00001577,-0.00
 009500,-0.00016891,-0.00002112,-0.00000481,-0.00000854,0.00001190,0.00
 000166,0.00000995,0.00000903,0.00000769,-0.00000716,-0.00000651,-0.000
 01589,-0.00002647,-0.00000258,0.00001195,0.00000087,-0.00000355,0.0000
 3530,0.00005896,-0.00001554,-0.00002922,0.00000010,0.00000809,0.000071
 76,-0.00001517,0.00000246,0.00001403,0.00000126,-0.00053299,-0.0006464
 4,-0.00027692,0.00015369,0.00133377,-0.00050660,-0.09568379,0.29989955
 ,0.00005816,0.00009970,0.00005178,-0.00000038,-0.00002293,-0.00000023,
 0.00000042,-0.00003283,-0.00000856,-0.00000156,-0.00002551,-0.00001174
 ,-0.00022621,-0.00005664,-0.00011656,0.00107661,0.00006750,0.00028935,
 -0.00003500,-0.00064029,-0.00028982,-0.00037782,-0.00390254,-0.0010697
 0,0.00698321,-0.01365105,0.00206974,-0.02072859,0.05188167,-0.06059586
 ,0.00382812,-0.01009193,0.00054192,0.00137019,-0.00138249,-0.00082799,
 -0.00021698,0.00023802,-0.00004044,0.00021186,0.00025836,0.00004190,-0
 .00000859,0.00000074,-0.00000330,0.00000153,0.00000269,0.00000032,-0.0
 0000049,0.00000229,-0.00000274,-0.00000408,-0.00000272,-0.00001103,-0.
 00000534,0.00000463,-0.00000344,-0.00000151,0.00001507,0.00003049,-0.0
 0000608,-0.00000868,0.00000324,0.00000723,0.00002786,-0.00001202,-0.00
 000649,0.00000293,0.00000023,-0.00032638,-0.00007379,-0.00002171,0.000
 43872,0.00021599,0.00053848,0.02078150,-0.05331792,0.06484940,0.000082
 00,0.00009728,0.00006500,-0.00000011,-0.00000326,-0.00002481,-0.000009
 94,-0.00001754,-0.00001431,-0.00000392,-0.00003601,-0.00002483,-0.0000
 5511,-0.00019209,0.00006510,0.00003004,0.00031368,-0.00001609,0.000118
 38,-0.00020879,-0.00004587,-0.00006932,0.00028703,0.00032322,-0.002484
 29,0.00243589,-0.02278147,-0.04743167,0.00068150,0.01219019,-0.0062461
 8,-0.00670542,0.03729000,0.00092944,-0.00165208,-0.00037421,0.00476889
 ,0.00075637,0.00007738,-0.00093419,0.00022958,-0.00157831,-0.00000590,
 -0.00001176,0.00000032,0.00000238,0.00000533,0.00000187,0.00001393,0.0
 0000285,0.00001967,-0.00000223,-0.00001136,-0.00000796,-0.00000023,0.0
 0000317,0.00001626,-0.00000024,0.00000927,0.00001409,-0.00000411,-0.00
 001318,0.00000745,0.00000590,0.00001604,-0.00000337,-0.00000616,0.0000
 0206,0.00000487,0.00049545,0.00084399,0.00009810,-0.00086960,-0.003571
 67,-0.00178178,0.00052295,0.00152274,-0.01271344,0.05695746,0.00000880
 ,-0.00000610,-0.00001130,0.00000245,0.00000539,-0.00000805,-0.00000255
 ,0.00000225,0.00000088,0.00000191,-0.00000575,-0.00001145,0.00017655,-
 0.00009483,0.00011167,-0.00030684,-0.00033008,-0.00005980,0.00006566,0
 .00005549,0.00000415,-0.00069885,0.00053814,0.00093231,-0.00047442,0.0
 0278141,-0.02627392,0.00197980,-0.06041615,0.04505665,-0.00090129,-0.0
 0038296,-0.00162985,-0.00003032,0.00066810,-0.00088126,0.00002418,-0.0
 0057764,-0.00017405,-0.00070422,0.00047378,0.00005556,0.00000128,-0.00
 000531,0.00000276,-0.00000323,0.00000346,-0.00000209,0.00000802,-0.000
 00116,0.00001421,0.00000109,-0.00000279,0.00000111,0.00000049,-0.00000
 126,0.00001154,-0.00000041,-0.00000313,-0.00000703,0.00000335,0.000000
 15,0.00000955,0.00000274,-0.00001417,-0.00000414,-0.00001196,-0.000004
 36,0.00000334,0.00047880,0.00139606,0.00035896,-0.00137073,-0.00266600
 ,-0.00217860,-0.00220523,-0.00442963,0.03175386,0.00364155,0.06240937,
 0.00008621,0.00012604,0.00003317,-0.00000312,-0.00000853,-0.00001887,-
 0.00001285,-0.00002422,-0.00001540,-0.00000196,-0.00003400,-0.00001926
 ,-0.00001264,-0.00025143,0.00003135,0.00008662,0.00021460,-0.00011325,
 0.00011433,-0.00027312,-0.00002690,0.00002851,-0.00049768,0.00088119,-
 0.00070387,0.00348767,-0.01639450,0.00955294,0.04448451,-0.29481245,0.
 00007972,0.00269074,-0.01480009,-0.00038722,0.00028414,-0.00036164,-0.
 00074253,-0.00009774,0.00323510,0.00152571,0.00018886,0.00043407,-0.00
 000644,-0.00001377,-0.00000291,0.00000316,0.00001003,0.00000072,0.0000
 1587,0.00000078,0.00002200,-0.00000427,-0.00001459,-0.00000994,0.00000
 492,0.00000117,0.00002181,-0.00000151,0.00001468,0.00001134,-0.0000035
 6,-0.00001270,0.00000836,0.00000972,0.00001585,-0.00001116,-0.00001440
 ,0.00000284,0.00000628,-0.00017082,0.00000452,0.00143406,-0.00067640,-
 0.00242958,0.00008930,0.00061328,0.00082619,-0.00622663,-0.01154919,-0
 .04681536,0.32513962,-0.00001351,-0.00005475,-0.00000631,0.00000144,0.
 00000492,0.00000962,0.00000603,0.00000532,0.00001033,-0.00000114,0.000
 00411,0.00000332,0.00009284,0.00007271,0.00005324,0.00013163,-0.000231
 79,-0.00013953,-0.00007577,-0.00001259,0.00003986,0.00019506,0.0003881
 6,-0.00035738,0.00125291,0.00048173,0.00057869,-0.00635052,-0.01067315
 ,0.03167645,-0.05306202,-0.01444416,0.03693795,0.00196730,0.00509310,-
 0.00580622,-0.00300884,0.00523553,-0.02943259,-0.00266167,-0.00158529,
 -0.00466429,0.00000370,0.00000228,-0.00000017,-0.00000027,-0.00000010,
 -0.00000171,-0.00000380,-0.00000018,-0.00000318,0.00000089,0.00000485,
 0.00000232,-0.00000087,-0.00000147,-0.00000649,0.00000208,-0.00000308,
 -0.00000639,0.00000105,0.00000244,-0.00000070,-0.00000190,-0.00000208,
 -0.00000151,0.00000066,0.00000003,-0.00000136,-0.00004403,0.00029087,-
 0.00026233,-0.00034770,-0.00019211,-0.00049321,0.00159050,0.00024735,-
 0.00049705,-0.00574243,-0.00002335,0.00160134,0.06590593,-0.00001275,0
 .00004786,0.00007082,-0.00000092,-0.00002032,-0.00001138,0.00000338,-0
 .00001430,-0.00000300,0.00000184,-0.00001061,-0.00001330,-0.00019467,-
 0.00011518,-0.00015019,0.00008328,-0.00019266,0.00009413,-0.00019298,0
 .00007511,-0.00016207,0.00126966,0.00139679,-0.00138903,-0.00003356,-0
 .00023296,0.00040217,0.00315418,0.00337867,-0.00631005,-0.01231958,-0.
 09229844,0.10081743,-0.00156640,-0.01790597,0.03224770,-0.00211998,0.0
 0493008,-0.02010478,-0.00243489,-0.00010613,-0.00414610,-0.00000823,0.
 00000092,-0.00000193,0.00000614,-0.00000036,-0.00000162,-0.00000605,0.
 00000471,-0.00000364,0.00000274,0.00000563,-0.00000800,-0.00001674,0.0
 0000615,-0.00001578,0.00000033,-0.00000627,0.00002148,-0.00000496,-0.0
 0000634,-0.00000311,-0.00000118,0.00001223,0.00000967,0.00001057,0.000
 00439,-0.00000556,-0.00009763,0.00005842,-0.00002439,-0.00036089,0.000
 07340,-0.00000186,-0.00075383,0.00053937,-0.00053689,0.00122471,0.0005
 5809,-0.00105699,0.01448521,0.10378948,-0.00003566,-0.00008192,-0.0000
 4281,0.00000387,0.00001724,0.00000406,0.00000342,0.00002239,0.00000777
 ,0.00000580,0.00001400,0.00000888,0.00014083,0.00015415,0.00015661,0.0
 0020973,-0.00009842,-0.00032473,-0.00006047,0.00009288,0.00005786,0.00
 071191,0.00094601,0.00067183,0.00046082,0.00028240,-0.00042320,0.00291
 131,0.00449818,-0.00968174,0.02949727,0.09559338,-0.26862420,0.0005964
 0,-0.00187133,0.00197793,-0.00466877,0.00303988,-0.02426489,-0.0027082
 7,-0.00209567,-0.00000734,0.00000675,0.00000323,0.00000327,-0.00000687
 ,-0.00000336,0.00000165,-0.00000055,-0.00000375,-0.00000122,-0.0000003
 3,0.00000274,0.00000910,0.00000499,-0.00000450,0.00000345,-0.00000077,
 -0.00000403,-0.00001298,0.00000331,0.00000862,0.00000061,-0.00000062,-
 0.00001150,-0.00000125,-0.00000453,-0.00000480,0.00000333,0.00016191,0
 .00013221,0.00030931,0.00036697,0.00022930,0.00031768,-0.00021759,-0.0
 0054062,0.00052495,0.00141233,-0.00041595,0.00071213,-0.02832531,-0.09
 908952,0.29653279,0.00033322,0.00061811,0.00069486,-0.00001432,-0.0001
 1989,-0.00005803,-0.00002683,-0.00010828,-0.00002957,-0.00006902,-0.00
 022873,-0.00012559,-0.00201828,-0.00133298,-0.00030321,-0.00017857,0.0
 0759635,0.00121247,0.00184716,-0.00213073,-0.00057088,-0.02201922,0.00
 226719,-0.03160174,0.00020321,-0.00122512,-0.00269604,0.00055446,-0.00
 024705,-0.00057825,-0.00121560,0.00061490,-0.00199213,-0.05782153,0.02
 298646,-0.04503834,0.00021667,-0.00051433,0.00104713,0.00044667,0.0001
 6542,-0.00002524,-0.00005591,-0.00001715,-0.00002395,0.00001967,0.0000
 1304,0.00000795,0.00002633,0.00001687,0.00001903,-0.00001483,-0.000033
 49,-0.00005464,-0.00001247,0.00002472,0.00002033,0.00000976,0.00007537
 ,0.00011868,-0.00003104,-0.00009057,0.00004378,0.00002498,0.00013097,-
 0.00004814,-0.00003193,0.00002572,0.00000777,-0.00011518,-0.00005927,-
 0.00010902,-0.00097195,0.00084105,0.00004799,0.00000404,0.00002111,0.0
 0027836,0.00003233,0.00031578,0.00042237,0.00001294,-0.00041310,-0.000
 15011,0.07414552,0.00002513,0.00019057,0.00031726,-0.00001015,-0.00005
 710,-0.00001928,-0.00000957,-0.00000221,0.00001800,-0.00004692,-0.0000
 8454,-0.00004221,-0.00083672,-0.00079152,0.00006290,-0.00123005,0.0035
 5980,-0.00007759,0.00141357,-0.00010585,0.00074419,-0.00770686,0.00505
 002,-0.01512827,0.00042539,-0.00121620,-0.00066386,-0.00149636,0.00102
 293,0.00013147,0.00673177,-0.01640882,0.03395415,0.02354539,-0.0812857
 2,0.08107787,0.00063847,0.00483722,0.00019429,-0.00016451,-0.00120555,
 -0.00183919,-0.00002165,-0.00000253,-0.00001114,0.00000765,0.00000395,
 0.00000027,0.00001186,0.00000421,0.00000719,0.00000387,-0.00001159,-0.
 00000629,0.00000611,0.00000158,0.00001490,0.00001590,-0.00000034,-0.00
 001785,0.00000166,-0.00003412,0.00002268,-0.00000533,-0.00000131,-0.00
 001960,-0.00001133,0.00000791,0.00000127,-0.00000145,-0.00003465,-0.00
 005765,-0.00016028,0.00036248,-0.00000593,-0.00001194,0.00003064,-0.00
 039165,0.00047928,0.00007705,-0.00063257,0.00125266,-0.00550403,-0.001
 07426,-0.02099755,0.08686354,0.00026112,0.00050820,0.00026443,-0.00001
 499,-0.00008057,-0.00002659,-0.00003865,-0.00009541,-0.00002791,-0.000
 04758,-0.00012330,-0.00005481,-0.00103604,-0.00077704,-0.00060189,-0.0
 0039124,0.00473056,0.00085388,0.00143255,-0.00116618,0.00034827,-0.011
 32458,-0.00442006,-0.00107419,0.00095112,-0.00052278,-0.00170801,-0.00
 034664,-0.00002308,0.00017760,-0.00008071,-0.00091354,-0.00229533,-0.0
 4369768,0.07733839,-0.25222177,0.00161960,-0.00044410,0.00273011,0.000
 09979,0.00151159,0.00053191,-0.00003665,-0.00001500,-0.00001448,0.0000
 0843,0.00001525,0.00000912,0.00002895,0.00000370,0.00002009,-0.0000178
 5,-0.00003565,-0.00004247,0.00001489,0.00000870,0.00003650,0.00000531,
 0.00007896,0.00006212,-0.00000955,-0.00005029,0.00002700,0.00002293,0.
 00008046,-0.00004919,-0.00003028,0.00001671,0.00001096,-0.00022367,0.0
 0012452,0.00000438,-0.00032616,0.00049269,0.00012063,-0.00013821,0.000
 08949,0.00013491,-0.00032885,0.00003862,0.00043650,-0.00043475,-0.0004
 4464,0.00108879,0.05880095,-0.08630239,0.27354040,0.00008394,0.0001798
 1,-0.00006742,-0.00000887,-0.00002770,-0.00001173,-0.00003458,-0.00007
 316,-0.00002943,-0.00001317,0.00001574,-0.00002255,-0.00025203,-0.0005
 6001,-0.00053989,-0.00317198,0.00642211,0.00300170,0.00389786,-0.00105
 737,-0.00095667,-0.02997523,0.00627356,0.01288937,-0.00190461,-0.00293
 181,0.00203202,-0.00055720,-0.00099074,-0.00053332,0.00113945,-0.00072
 760,-0.00164836,-0.16607095,0.05396861,0.12015586,0.00035948,0.0007733
 8,0.00041090,0.00005179,0.00010464,-0.00000327,-0.00001204,-0.00001086
 ,-0.00000682,0.00002297,0.00001344,-0.00000754,0.00000328,0.00000332,0
 .00001136,0.00002320,-0.00000023,-0.00003982,-0.00002322,0.00000959,-0
 .00000697,0.00000284,-0.00002383,0.00000700,0.00000518,-0.00001992,0.0
 0000673,0.00002238,-0.00001492,0.00001938,0.00000923,0.00001556,-0.000
 01109,-0.00102414,0.00106371,0.00012888,-0.00005492,0.00001779,-0.0001
 1761,0.00023811,0.00005933,0.00012010,-0.00009348,0.00002094,0.0001460
 6,0.00014952,0.00029631,-0.00031776,0.00671973,-0.00184802,-0.00472157
 ,0.19046747,-0.00002470,-0.00004073,-0.00018185,0.00000050,0.00001327,
 0.00000994,-0.00004777,-0.00001318,-0.00002323,-0.00001058,0.00008044,
 0.00001286,0.00031678,-0.00008206,-0.00052828,-0.00305067,0.00410744,0
 .00182190,0.00259734,-0.00135948,-0.00070570,-0.01243002,0.00123778,0.
 00675675,-0.00089809,-0.00223134,-0.00025366,0.00133612,-0.00539874,0.
 00069528,0.02476542,-0.00780590,-0.02157712,0.05765755,-0.07182966,-0.
 05685938,-0.00205101,0.00060510,0.00073962,0.00020106,-0.00038951,0.00
 019365,0.00000641,0.00000448,0.00000481,-0.00000173,-0.00000174,0.0000
 0201,0.00000321,-0.00000756,-0.00000020,0.00000796,-0.00000280,-0.0000
 1038,0.00001383,-0.00000582,0.00000880,-0.00001420,-0.00001111,-0.0000
 3569,0.00003091,0.00001051,0.00000156,0.00000808,-0.00008544,0.0000287
 3,0.00001317,-0.00000366,-0.00000351,-0.00026117,0.00039059,0.00017024
 ,0.00006922,-0.00009021,0.00001493,0.00138516,-0.00002986,-0.00043342,
 -0.00012915,-0.00002743,-0.00019032,-0.00034718,0.00153228,0.00026305,
 -0.00819480,0.00473419,0.01037617,-0.06095166,0.07670015,0.00006480,0.
 00007441,-0.00003137,0.00000249,-0.00000143,-0.00000391,-0.00001064,-0
 .00003602,-0.00002613,0.00000897,0.00001435,-0.00000774,-0.00034313,0.
 00025570,-0.00039495,0.00038390,-0.00032211,0.00150366,-0.00084883,-0.
 00005806,-0.00116130,-0.00969833,0.00367093,0.01023565,-0.00172259,-0.
 00010035,-0.00044999,-0.00100642,0.00012376,0.00052803,-0.00168501,0.0
 0239453,-0.00020037,0.12564558,-0.05577285,-0.17906362,-0.00057697,-0.
 00030532,0.00013645,0.00026775,0.00027510,0.00028374,-0.00000119,-0.00
 000330,0.00000054,0.00000264,0.00000283,-0.00000109,-0.00000065,0.0000
 0015,0.00000344,0.00000394,0.00000050,-0.00001516,-0.00001446,0.000005
 99,-0.00000497,-0.00001208,-0.00000709,0.00001970,0.00000562,-0.000000
 79,0.00000218,0.00000560,-0.00003104,0.00000134,-0.00000410,0.00000110
 ,-0.00000338,-0.00032293,0.00025944,0.00004559,-0.00011758,0.00013828,
 0.00001448,-0.00000812,0.00003743,0.00016506,-0.00034133,0.00011768,0.
 00031598,-0.00047262,-0.00017958,0.00099236,0.02068321,-0.01025671,-0.
 02228098,-0.12988753,0.05970247,0.18939677\\-0.00000013,-0.00000072,0.
 00000111,0.00000013,-0.00000239,0.00000359,-0.00000096,0.00000063,-0.0
 0000070,0.00000357,-0.00000150,0.00000055,0.00000109,-0.00000080,0.000
 00085,-0.00000139,0.00000160,-0.00000107,0.00000194,0.00000101,-0.0000
 0307,0.00000036,0.00000087,-0.00000076,-0.00000087,-0.00000063,0.00000
 104,-0.00000186,-0.00000008,0.00000109,-0.00000041,0.00000235,-0.00000
 142,-0.00000057,0.00000132,-0.00000278,-0.00000162,0.00000253,-0.00000
 327,0.00000077,0.00000182,-0.00000301,0.00000017,-0.00000286,0.0000037
 9,0.00000124,-0.00000356,0.00000433,-0.00000203,-0.00000237,0.00000411
 ,-0.00000101,0.00000034,0.00000006,-0.00000331,0.00000062,0.00000048,-
 0.00000092,0.00000167,-0.00000174,0.00000382,-0.00000132,0.00000021,0.
 00000382,0.00000010,-0.00000177,0.00000460,-0.00000223,0.00000094,0.00
 000029,-0.00000194,0.00000251,-0.00000295,-0.00000067,0.00000202,-0.00
 000233,-0.00000053,0.00000159,0.00000092,-0.00000075,0.00000052,-0.000
 00369,0.00000230,-0.00000173,0.00000203,0.00000185,-0.00000340,-0.0000
 0071,0.00000332,-0.00000407\\\@
 The archive entry for this job was punched.


 AND ALL THIS SCIENCE I DON'T UNDERSTAND
 IT'S JUST MY JOB FIVE DAYS A WEEK

                           -- ELTON JOHN, "ROCKET MAN"
 Job cpu time:  0 days  0 hours 16 minutes  2.6 seconds.
 File lengths (MBytes):  RWF=    113 Int=      0 D2E=      0 Chk=      3 Scr=      1
 Normal termination of Gaussian DV at Wed Oct 19 23:05:09 2011.
