 Entering Gaussian System, Link 0=gdv
 Input=tub.gjf
 Output=tub.log
 Initial command:
 /home/foresman/gdv/l1.exe /tmp/Gau-25527.inp -scrdir=/tmp/
 Default is to use a total of   8 processors:
                                8 via shared-memory
                                1 via Linda
 Entering Link 1 = /home/foresman/gdv/l1.exe PID=     25528.
  
 Copyright (c) 1988,1990,1992,1993,1995,1998,2003,2009,2011,
            Gaussian, Inc.  All Rights Reserved.
  
 This is the private, development version of
 the Gaussian(R) DV system of programs. It is based on
 the Gaussian(R) 09 system (copyright 2009, Gaussian, Inc.),
 the Gaussian(R) 03 system (copyright 2003, Gaussian, Inc.),
 the Gaussian(R) 98 system (copyright 1998, Gaussian, Inc.),
 the Gaussian(R) 94 system (copyright 1995, Gaussian, Inc.),
 the Gaussian 92(TM) system (copyright 1992, Gaussian, Inc.),
 the Gaussian 90(TM) system (copyright 1990, Gaussian, Inc.),
 the Gaussian 88(TM) system (copyright 1988, Gaussian, Inc.),
 the Gaussian 86(TM) system (copyright 1986, Carnegie Mellon
 University), and the Gaussian 82(TM) system (copyright 1983,
 Carnegie Mellon University). Gaussian is a federally registered
 trademark of Gaussian, Inc.
  
 This software contains proprietary and confidential information,
 including trade secrets, belonging to Gaussian, Inc.
  
 This software is provided under written license and may be
 used, copied, transmitted, or stored only in accord with that
 written license.
  
 The following legend is applicable only to US Government
 contracts under FAR:
  
                    RESTRICTED RIGHTS LEGEND
  
 Use, reproduction and disclosure by the US Government is
 subject to restrictions as set forth in subparagraphs (a)
 and (c) of the Commercial Computer Software - Restricted
 Rights clause in FAR 52.227-19.
  
 Gaussian, Inc.
 340 Quinnipiac St., Bldg. 40, Wallingford CT 06492
  
  
 ---------------------------------------------------------------
 Warning -- This program may not be used in any manner that
 competes with the business of Gaussian, Inc. or will provide
 assistance to any competitor of Gaussian, Inc.  The licensee
 of this program is prohibited from giving any competitor of
 Gaussian, Inc. access to this program.  By using this program,
 the user acknowledges that Gaussian, Inc. is engaged in the
 business of creating and licensing software in the field of
 computational chemistry and represents and warrants to the
 licensee that it is not a competitor of Gaussian, Inc. and that
 it will not use this program in any manner prohibited above.
 ---------------------------------------------------------------
  

 Cite this work as:
 Gaussian Development Version, Revision H.13,
 M. J. Frisch, G. W. Trucks, H. B. Schlegel, G. E. Scuseria, 
 M. A. Robb, J. R. Cheeseman, G. Scalmani, V. Barone, B. Mennucci, 
 G. A. Petersson, H. Nakatsuji, M. Caricato, X. Li, H. P. Hratchian, 
 A. F. Izmaylov, J. Bloino, G. Zheng, J. L. Sonnenberg, W. Liang, 
 M. Hada, M. Ehara, K. Toyota, R. Fukuda, J. Hasegawa, M. Ishida, 
 T. Nakajima, Y. Honda, O. Kitao, H. Nakai, T. Vreven, 
 J. A. Montgomery, Jr., J. E. Peralta, F. Ogliaro, M. Bearpark, 
 J. J. Heyd, E. Brothers, K. N. Kudin, V. N. Staroverov, T. Keith, 
 R. Kobayashi, J. Normand, K. Raghavachari, A. Rendell, J. C. Burant, 
 S. S. Iyengar, J. Tomasi, M. Cossi, N. Rega, J. M. Millam, M. Klene, 
 J. E. Knox, J. B. Cross, V. Bakken, C. Adamo, J. Jaramillo, 
 R. Gomperts, R. E. Stratmann, O. Yazyev, A. J. Austin, R. Cammi, 
 C. Pomelli, J. W. Ochterski, R. L. Martin, K. Morokuma, 
 V. G. Zakrzewski, G. A. Voth, P. Salvador, J. J. Dannenberg, 
 S. Dapprich, P. V. Parandekar, N. J. Mayhall, A. D. Daniels, 
 O. Farkas, J. B. Foresman, J. V. Ortiz, J. Cioslowski, 
 and D. J. Fox, Gaussian, Inc., Wallingford CT, 2010.
 
 ******************************************
 Gaussian DV:  EM64L-GDVRevH.13 30-Sep-2011
                19-Oct-2011 
 ******************************************
 %chk=tub
 %nprocshared=8
 Will use up to    8 processors via shared memory.
 Default route:  maxdisk=400GB
 ------------------------------------
 #p B3LYP/3-21G freq=vcd Geom=Connect
 ------------------------------------
 1/10=4,30=1,38=1,57=2/1,3;
 2/12=2,17=6,18=5,40=1/2;
 3/5=5,11=2,16=1,25=1,30=1,36=2,71=2,74=-5,140=1/1,2,3;
 4//1;
 5/5=2,38=5,98=1/2;
 8/6=4,10=90,11=11/1;
 10/15=4,46=1/2;
 11/6=1,8=1,9=11,15=111,16=1/1,2,10;
 10/6=1,46=1/2;
 6/7=2,8=2,9=2,10=2,18=1,28=1/1;
 7/8=1,10=1,25=1/1,2,3,16;
 1/10=4,30=1/3;
 99//99;
 Leave Link    1 at Wed Oct 19 23:05:09 2011, MaxMem=          0 cpu:       0.3
 (Enter /home/foresman/gdv/l101.exe)
 ----------------
 21 -20.103 0.000
 ----------------
 Charge =  0 Multiplicity = 1
 Symbolic Z-Matrix:
 C                    -1.28424  -1.90842  -0.6944 
 C                    -2.77708  -1.69798  -0.97495 
 C                    -0.4876   -2.11252  -1.9926 
 C                    -1.05156  -3.05047   0.30715 
 O                    -0.89313  -0.60257  -0.06526 
 C                     0.42122  -0.4184    0.33901 
 O                     1.34416  -1.23962   0.21721 
 N                     0.55156   0.81774   0.88706 
 C                    -0.53324   1.82986   0.96792 
 C                     0.16941   3.02543   1.65256 
 C                     1.65406   2.86426   1.26421 
 C                     1.858     1.32976   1.33289 
 O                     2.45297   3.60426   2.2224 
 H                     3.39948   3.58053   1.91679 
 H                    -3.19841  -2.59389  -1.44177 
 H                    -3.30562  -1.49621  -0.03852 
 H                    -2.9119   -0.84388  -1.64526 
 H                    -0.81819  -3.03281  -2.48534 
 H                    -0.65835  -1.26778  -2.66837 
 H                     0.57491  -2.17802  -1.75512 
 H                    -1.39451  -3.99551  -0.1268 
 H                     0.01215  -3.11314   0.54008 
 H                    -1.61494  -2.85708   1.22604 
 H                    -1.37925   1.44767   1.54324 
 H                    -0.88593   2.08347  -0.03729 
 H                    -0.24106   3.99065   1.35046 
 H                     0.11907   2.93575   2.74206 
 H                     1.8063    3.2089    0.23125 
 H                     2.07118   1.0646    2.37571 
 H                     2.65005   0.94434   0.68645 
 
 NAtoms=     30 NQM=        0 NQMF=       0 NMMI=     30 NMMIF=      0
                NMic=       0 NMicF=      0.
                    Isotopes and Nuclear Properties:
 (Nuclear quadrupole moments (NQMom) in fm**2, nuclear magnetic moments (NMagM)
  in nuclear magnetons)

  Atom         1           2           3           4           5           6           7           8           9          10
 IAtWgt=          12          12          12          12          16          12          16          14          12          12
 AtmWgt=  12.0000000  12.0000000  12.0000000  12.0000000  15.9949146  12.0000000  15.9949146  14.0030740  12.0000000  12.0000000
 NucSpn=           0           0           0           0           0           0           0           2           0           0
 AtZEff=   0.0000000   0.0000000   0.0000000   0.0000000   0.0000000   0.0000000   0.0000000   0.0000000   0.0000000   0.0000000
 NQMom=    0.0000000   0.0000000   0.0000000   0.0000000   0.0000000   0.0000000   0.0000000   2.0440000   0.0000000   0.0000000
 NMagM=    0.0000000   0.0000000   0.0000000   0.0000000   0.0000000   0.0000000   0.0000000   0.4037610   0.0000000   0.0000000
 AtZNuc=   6.0000000   6.0000000   6.0000000   6.0000000   8.0000000   6.0000000   8.0000000   7.0000000   6.0000000   6.0000000

  Atom        11          12          13          14          15          16          17          18          19          20
 IAtWgt=          12          12          16           1           1           1           1           1           1           1
 AtmWgt=  12.0000000  12.0000000  15.9949146   1.0078250   1.0078250   1.0078250   1.0078250   1.0078250   1.0078250   1.0078250
 NucSpn=           0           0           0           1           1           1           1           1           1           1
 AtZEff=   0.0000000   0.0000000   0.0000000   0.0000000   0.0000000   0.0000000   0.0000000   0.0000000   0.0000000   0.0000000
 NQMom=    0.0000000   0.0000000   0.0000000   0.0000000   0.0000000   0.0000000   0.0000000   0.0000000   0.0000000   0.0000000
 NMagM=    0.0000000   0.0000000   0.0000000   2.7928460   2.7928460   2.7928460   2.7928460   2.7928460   2.7928460   2.7928460
 AtZNuc=   6.0000000   6.0000000   8.0000000   1.0000000   1.0000000   1.0000000   1.0000000   1.0000000   1.0000000   1.0000000

  Atom        21          22          23          24          25          26          27          28          29          30
 IAtWgt=           1           1           1           1           1           1           1           1           1           1
 AtmWgt=   1.0078250   1.0078250   1.0078250   1.0078250   1.0078250   1.0078250   1.0078250   1.0078250   1.0078250   1.0078250
 NucSpn=           1           1           1           1           1           1           1           1           1           1
 AtZEff=   0.0000000   0.0000000   0.0000000   0.0000000   0.0000000   0.0000000   0.0000000   0.0000000   0.0000000   0.0000000
 NQMom=    0.0000000   0.0000000   0.0000000   0.0000000   0.0000000   0.0000000   0.0000000   0.0000000   0.0000000   0.0000000
 NMagM=    2.7928460   2.7928460   2.7928460   2.7928460   2.7928460   2.7928460   2.7928460   2.7928460   2.7928460   2.7928460
 AtZNuc=   1.0000000   1.0000000   1.0000000   1.0000000   1.0000000   1.0000000   1.0000000   1.0000000   1.0000000   1.0000000
 Leave Link  101 at Wed Oct 19 23:05:09 2011, MaxMem=  128000000 cpu:       0.9
 (Enter /home/foresman/gdv/l103.exe)

 GradGradGradGradGradGradGradGradGradGradGradGradGradGradGradGradGradGrad
 Berny optimization.
 Initialization pass.
 Trust Radius=3.00D-01 FncErr=1.00D-07 GrdErr=1.00D-07
 Number of steps in this run=      2 maximum allowed number of steps=      2.
 GradGradGradGradGradGradGradGradGradGradGradGradGradGradGradGradGradGrad

 Leave Link  103 at Wed Oct 19 23:05:09 2011, MaxMem=  128000000 cpu:       0.2
 (Enter /home/foresman/gdv/l202.exe)
                          Input orientation:                          
 ---------------------------------------------------------------------
 Center     Atomic      Atomic             Coordinates (Angstroms)
 Number     Number       Type             X           Y           Z
 ---------------------------------------------------------------------
      1          6           0       -1.284237   -1.908422   -0.694397
      2          6           0       -2.777084   -1.697980   -0.974949
      3          6           0       -0.487604   -2.112525   -1.992595
      4          6           0       -1.051563   -3.050468    0.307150
      5          8           0       -0.893132   -0.602570   -0.065261
      6          6           0        0.421216   -0.418400    0.339012
      7          8           0        1.344160   -1.239622    0.217207
      8          7           0        0.551556    0.817744    0.887057
      9          6           0       -0.533239    1.829856    0.967922
     10          6           0        0.169413    3.025428    1.652565
     11          6           0        1.654062    2.864261    1.264211
     12          6           0        1.858003    1.329763    1.332885
     13          8           0        2.452966    3.604258    2.222401
     14          1           0        3.399481    3.580526    1.916789
     15          1           0       -3.198412   -2.593893   -1.441775
     16          1           0       -3.305620   -1.496209   -0.038525
     17          1           0       -2.911897   -0.843879   -1.645264
     18          1           0       -0.818195   -3.032814   -2.485336
     19          1           0       -0.658351   -1.267779   -2.668372
     20          1           0        0.574912   -2.178023   -1.755124
     21          1           0       -1.394506   -3.995512   -0.126804
     22          1           0        0.012149   -3.113145    0.540084
     23          1           0       -1.614935   -2.857078    1.226041
     24          1           0       -1.379253    1.447674    1.543236
     25          1           0       -0.885931    2.083466   -0.037288
     26          1           0       -0.241059    3.990649    1.350459
     27          1           0        0.119073    2.935753    2.742058
     28          1           0        1.806303    3.208901    0.231250
     29          1           0        2.071179    1.064598    2.375706
     30          1           0        2.650046    0.944342    0.686455
 ---------------------------------------------------------------------
                    Distance matrix (angstroms):
                    1          2          3          4          5
     1  C    0.000000
     2  C    1.533489   0.000000
     3  C    1.536750   2.539522   0.000000
     4  C    1.536718   2.539769   2.546884   0.000000
     5  O    1.501341   2.361510   2.481740   2.481127   0.000000
     6  C    2.489312   3.686861   3.021987   3.016268   1.387396
     7  O    2.861255   4.314623   3.000090   3.004453   2.343309
     8  N    3.647343   4.569002   4.237773   4.227214   2.238598
     9  C    4.159571   4.610338   4.930427   4.952054   2.667150
    10  C    5.653689   6.155993   6.333831   6.341721   4.152384
    11  C    5.937024   6.742621   6.321544   6.574221   4.502734
    12  C    4.946654   5.998113   5.330107   5.357623   3.641080
    13  O    7.270766   8.104949   7.687311   7.761139   5.841846
    14  H    7.673595   8.624078   7.924868   8.146950   6.312950
    15  H    2.166221   1.094580   2.807775   2.806450   3.342825
    16  H    2.164735   1.094053   3.484172   2.759708   2.572820
    17  H    2.164874   1.094068   2.758133   3.484508   2.574889
    18  H    2.165390   2.810747   1.094996   2.802276   3.430520
    19  H    2.167656   2.746231   1.095182   3.490892   2.697000
    20  H    2.157373   3.474908   1.090698   2.767589   2.737305
    21  H    2.165702   2.812388   2.801659   1.095005   3.430338
    22  H    2.157757   3.475318   2.768657   1.090719   2.736597
    23  H    2.167347   2.745625   3.490682   1.095057   2.696529
    24  H    4.034775   4.265012   5.096288   4.676384   2.650863
    25  H    4.065171   4.330705   4.646313   5.148140   2.686191
    26  H    6.329984   6.648266   6.963155   7.163989   4.850477
    27  H    6.102830   6.608733   6.947669   6.567648   4.628750
    28  H    6.049402   6.822011   6.206857   6.881341   4.679977
    29  H    5.433526   6.508793   5.976917   5.564549   4.186276
    30  H    5.052088   6.260660   5.134840   5.459329   3.938543
                    6          7          8          9         10
     6  C    0.000000
     7  O    1.241397   0.000000
     8  N    1.358452   2.304273   0.000000
     9  C    2.522135   3.675581   1.485830   0.000000
    10  C    3.694425   4.650907   2.367679   1.546559   0.000000
    11  C    3.626536   4.246659   2.354994   2.437635   1.543041
    12  C    2.471480   2.847896   1.472322   2.470086   2.414293
    13  O    4.884356   5.358491   3.628108   3.693188   2.423711
    14  H    5.229803   5.508788   4.099267   4.408115   3.288053
    15  H    4.583196   5.022074   5.578977   5.699066   7.245271
    16  H    3.897886   4.663870   4.592263   4.445418   5.948179
    17  H    3.902311   4.662556   4.600994   4.431210   5.944887
    18  H    4.043297   3.898083   5.298684   5.970909   7.402695
    19  H    3.306247   3.512464   4.295853   4.778455   6.147138
    20  H    2.739581   2.315691   3.994532   4.970520   6.233191
    21  H    4.038510   3.900457   5.289849   5.989585   7.409831
    22  H    2.733024   2.321334   3.982868   4.991368   6.240547
    23  H    3.298468   3.519965   4.279359   4.817058   6.161956
    24  H    2.859034   4.049307   2.134339   1.092149   2.213510
    25  H    2.847730   4.010110   2.126696   1.095060   2.203779
    26  H    4.571799   5.581480   3.303076   2.213759   1.091516
    27  H    4.137180   5.030852   2.848514   2.189995   1.094336
    28  H    3.884249   4.472486   2.778868   2.813878   2.175594
    29  H    3.011608   3.239924   2.141558   3.057853   2.825686
    30  H    2.635424   2.587514   2.111854   3.316121   3.379027
                   11         12         13         14         15
    11  C    0.000000
    12  C    1.549513   0.000000
    13  O    1.450507   2.513672   0.000000
    14  H    1.996342   2.789808   0.994913   0.000000
    15  H    7.788473   6.975755   9.153215   9.640311   0.000000
    16  H    6.731215   6.043996   8.017971   8.634516   1.784801
    17  H    6.562266   6.028768   7.970352   8.491000   1.784951
    18  H    7.412601   6.385368   8.770063   8.994652   2.635737
    19  H    6.155178   5.393451   7.572099   7.809978   3.116895
    20  H    5.975415   4.846307   7.265161   7.390671   3.809082
    21  H    7.634473   6.408437   8.836193   9.195376   2.635861
    22  H    6.240963   4.875976   7.342430   7.627225   3.808555
    23  H    6.589501   5.440805   7.699962   8.189277   3.113504
    24  H    3.359401   3.246225   4.449497   5.246418   5.343585
    25  H    2.958903   3.158261   4.308971   4.942101   5.403503
    26  H    2.206280   3.389201   2.857858   3.707083   7.739425
    27  H    2.131979   2.754786   2.482741   3.443527   7.686817
    28  H    1.099529   2.178861   2.130531   2.348907   7.843380
    29  H    2.155967   1.096919   2.572768   2.881819   7.465006
    30  H    2.238722   1.092591   3.077844   3.004137   7.159115
                   16         17         18         19         20
    16  H    0.000000
    17  H    1.778247   0.000000
    18  H    3.812522   3.143365   0.000000
    19  H    3.738490   2.510958   1.781685   0.000000
    20  H    4.297686   3.734949   1.790146   1.784237   0.000000
    21  H    3.147486   3.813265   2.611819   3.800266   3.135809
    22  H    3.735888   4.298297   3.138327   3.761534   2.541483
    23  H    2.511874   3.738914   3.800000   4.313627   3.760836
    24  H    3.857370   4.215062   6.051360   5.062709   5.276705
    25  H    4.320760   3.906338   5.672200   4.266760   4.821339
    26  H    6.436336   6.283343   8.023431   6.631455   6.954349
    27  H    6.253195   6.536130   7.989237   6.895420   6.825184
    28  H    6.952884   6.496749   7.295673   5.875627   5.872049
    29  H    6.426213   6.681432   6.983338   6.191368   5.460510
    30  H    6.477023   6.290457   6.156843   5.205173   4.473997
                   21         22         23         24         25
    21  H    0.000000
    22  H    1.789410   0.000000
    23  H    1.781800   1.784239   0.000000
    24  H    5.693640   4.872718   4.322852   0.000000
    25  H    6.100872   5.305155   5.151352   1.773599   0.000000
    26  H    8.203141   7.154349   6.985298   2.792735   2.445209
    27  H    7.652694   6.438112   6.233938   2.428278   3.075904
    28  H    7.891575   6.578954   7.034955   3.869238   2.930331
    29  H    6.624066   5.006261   5.503519   3.570047   3.950333
    30  H    6.435988   4.841810   5.738642   4.150020   3.784777
                   26         27         28         29         30
    26  H    0.000000
    27  H    1.782988   0.000000
    28  H    2.460783   3.037353   0.000000
    29  H    3.867732   2.728764   3.044157   0.000000
    30  H    4.251985   3.820608   2.459134   1.789726   0.000000
 Stoichiometry    C9H17NO3
 Framework group  C1[X(C9H17NO3)]
 Deg. of freedom    84
 Full point group                 C1      NOp   1
 Largest Abelian subgroup         C1      NOp   1
 Largest concise Abelian subgroup C1      NOp   1
                         Standard orientation:                         
 ---------------------------------------------------------------------
 Center     Atomic      Atomic             Coordinates (Angstroms)
 Number     Number       Type             X           Y           Z
 ---------------------------------------------------------------------
      1          6           0        2.712683    0.161786    0.036287
      2          6           0        3.336856    1.561547    0.087921
      3          6           0        3.020089   -0.642346    1.309266
      4          6           0        3.125969   -0.596192   -1.234998
      5          8           0        1.244716    0.471554   -0.019762
      6          6           0        0.338553   -0.577149   -0.082684
      7          8           0        0.620199   -1.786173   -0.080962
      8          7           0       -0.922799   -0.075703   -0.136859
      9          6           0       -1.266864    1.367975   -0.065420
     10          6           0       -2.810907    1.352833   -0.152299
     11          6           0       -3.208656   -0.020945    0.426930
     12          6           0       -2.103426   -0.955331   -0.126588
     13          8           0       -4.540056   -0.342472   -0.050527
     14          1           0       -4.834003   -1.179766    0.399347
     15          1           0        4.427708    1.481783    0.130161
     16          1           0        3.050490    2.128435   -0.802913
     17          1           0        2.979024    2.094975    0.973583
     18          1           0        4.099085   -0.813261    1.383910
     19          1           0        2.688290   -0.082334    2.190015
     20          1           0        2.493737   -1.596688    1.266770
     21          1           0        4.207351   -0.768106   -1.225273
     22          1           0        2.598595   -1.550218   -1.272124
     23          1           0        2.869087   -0.003292   -2.119097
     24          1           0       -0.800363    1.919676   -0.884440
     25          1           0       -0.914416    1.791656    0.880852
     26          1           0       -3.275715    2.183845    0.381349
     27          1           0       -3.143068    1.361250   -1.194973
     28          1           0       -3.148812    0.008369    1.524438
     29          1           0       -2.397613   -1.263088   -1.137514
     30          1           0       -1.904445   -1.839658    0.483434
 ---------------------------------------------------------------------
 Rotational constants (GHZ):      1.9498997      0.3752855      0.3433892
 Leave Link  202 at Wed Oct 19 23:05:09 2011, MaxMem=  128000000 cpu:       0.0
 (Enter /home/foresman/gdv/l301.exe)
 Standard basis: 3-21G (6D, 7F)
 Ernie: Thresh=  0.10000D-02 Tol=  0.10000D-05 Strict=F.
 There are   151 symmetry adapted cartesian basis functions of A   symmetry.
 There are   151 symmetry adapted basis functions of A   symmetry.
   151 basis functions,   246 primitive gaussians,   151 cartesian basis functions
    51 alpha electrons       51 beta electrons
       nuclear repulsion energy       869.8311346417 Hartrees.
 IExCor=  402 DFT=T Ex+Corr=B3LYP ExCW=0 ScaHFX=  0.200000
 ScaDFX=  0.800000  0.720000  1.000000  0.810000 ScalE2=  1.000000  1.000000
 IRadAn=      0 IRanWt=     -1 IRanGd=            0 ICorTp=0 IEmpDi=  4
 NAtoms=   30 NActive=   30 NUniq=   30 SFac= 1.00D+00 NAtFMM=   60 NAOKFM=F Big=F
 Integral buffers will be    131072 words long.
 Raffenetti 2 integral format.
 Two-electron integral symmetry is turned on.
 Leave Link  301 at Wed Oct 19 23:05:10 2011, MaxMem=  128000000 cpu:       0.5
 (Enter /home/foresman/gdv/l302.exe)
 NPDir=0 NMtPBC=     1 NCelOv=     1 NCel=       1 NClECP=     1 NCelD=      1
         NCelK=      1 NCelE2=     1 NClLst=     1 CellRange=     0.0.
 One-electron integrals computed using PRISM.
 NBasis=   151 RedAO= T EigKep=  8.95D-03  NBF=   151
 NBsUse=   151 1.00D-06 EigRej= -1.00D+00 NBFU=   151
 Precomputing XC quadrature grid using
 IXCGrd= 2 IRadAn=           0 IRanWt=          -1 IRanGd=           0 AccXCQ= 0.00D+00.
 NRdTot=    1904 NPtTot=      240826 NUsed=      254557 NTot=      254589
 NSgBfM=   148   148   148   148   148 NAtAll=    30    30.
 Leave Link  302 at Wed Oct 19 23:05:10 2011, MaxMem=  128000000 cpu:       2.1
 (Enter /home/foresman/gdv/l303.exe)
 DipDrv:  MaxL=2.
 Leave Link  303 at Wed Oct 19 23:05:10 2011, MaxMem=  128000000 cpu:       0.4
 (Enter /home/foresman/gdv/l401.exe)
 ExpMin= 1.83D-01 ExpMax= 3.22D+02 ExpMxC= 3.22D+02 IAcc=1 IRadAn=         1 AccDes= 0.00D+00
 Harris functional with IExCor=  402 and IRadAn=       1 diagonalized for initial guess.
 HarFok:  IExCor=  402 AccDes= 0.00D+00 IRadAn=         1 IDoV= 1 UseB2=F ITyADJ=14
 ICtDFT=  3500011 ScaDFX=  1.000000  1.000000  1.000000  1.000000
 FoFCou: FMM=F IPFlag=           0 FMFlag=      100000 FMFlg1=           0
         NFxFlg=           0 DoJE=T BraDBF=F KetDBF=T FulRan=T
         wScrn=  0.000000 ICntrl=     500 IOpCl=  0 I1Cent=   200000004 NGrid=           0
         NMat0=    1 NMatS0=      1 NMatT0=    0 NMatD0=    1 NMtDS0=    0 NMtDT0=    0
 Petite list used in FoFCou.
 Harris En= -630.189208719705    
 Initial guess orbital symmetries:
       Occupied  (A) (A) (A) (A) (A) (A) (A) (A) (A) (A) (A) (A)
                 (A) (A) (A) (A) (A) (A) (A) (A) (A) (A) (A) (A)
                 (A) (A) (A) (A) (A) (A) (A) (A) (A) (A) (A) (A)
                 (A) (A) (A) (A) (A) (A) (A) (A) (A) (A) (A) (A)
                 (A) (A) (A)
       Virtual   (A) (A) (A) (A) (A) (A) (A) (A) (A) (A) (A) (A)
                 (A) (A) (A) (A) (A) (A) (A) (A) (A) (A) (A) (A)
                 (A) (A) (A) (A) (A) (A) (A) (A) (A) (A) (A) (A)
                 (A) (A) (A) (A) (A) (A) (A) (A) (A) (A) (A) (A)
                 (A) (A) (A) (A) (A) (A) (A) (A) (A) (A) (A) (A)
                 (A) (A) (A) (A) (A) (A) (A) (A) (A) (A) (A) (A)
                 (A) (A) (A) (A) (A) (A) (A) (A) (A) (A) (A) (A)
                 (A) (A) (A) (A) (A) (A) (A) (A) (A) (A) (A) (A)
                 (A) (A) (A) (A)
 The electronic state of the initial guess is 1-A.
 Leave Link  401 at Wed Oct 19 23:05:10 2011, MaxMem=  128000000 cpu:       2.8
 (Enter /home/foresman/gdv/l502.exe)
 Closed shell SCF:
 Using DIIS extrapolation, IDIIS=  1040.
 Integral symmetry usage will be decided dynamically.
       254274 words used for storage of precomputed grid.
 Keep R1 ints in memory in canonical form, NReq=67954075.
 IVT=      343221 IEndB=      343221 NGot=   128000000 MDV=    61801754
 LenX=    61801754 LenY=    61778512
 Requested convergence on RMS density matrix=1.00D-08 within 128 cycles.
 Requested convergence on MAX density matrix=1.00D-06.
 Requested convergence on             energy=1.00D-06.
 No special actions if energy rises.
 FoFCou: FMM=F IPFlag=           0 FMFlag=           0 FMFlg1=           0
         NFxFlg=           0 DoJE=F BraDBF=F KetDBF=F FulRan=T
         wScrn=  0.000000 ICntrl=     600 IOpCl=  0 I1Cent=           0 NGrid=           0
         NMat0=    1 NMatS0=  11476 NMatT0=    0 NMatD0=    1 NMtDS0=    0 NMtDT0=    0
 Symmetry not used in FoFCou.
 Integral accuracy reduced to 1.0D-05 until final iterations.

 Cycle   1  Pass 0  IDiag  1:
 E= -629.848456105028    
 DIIS: error= 4.74D-02 at cycle   1 NSaved=   1.
 NSaved= 1 IEnMin= 1 EnMin= -629.848456105028     IErMin= 1 ErrMin= 4.74D-02
 ErrMax= 4.74D-02  0.00D+00 EMaxC= 1.00D-01 BMatC= 3.64D-01 BMatP= 3.64D-01
 IDIUse=3 WtCom= 5.26D-01 WtEn= 4.74D-01
 Coeff-Com:  0.100D+01
 Coeff-En:   0.100D+01
 Coeff:      0.100D+01
 Gap=     0.270 Goal=   None    Shift=    0.000
 GapD=    0.270 DampG=1.000 DampE=0.500 DampFc=0.5000 IDamp=-1.
 Damping current iteration by 5.00D-01
 RMSDP=8.99D-03 MaxDP=1.72D-01              OVMax= 2.69D-01

 Cycle   2  Pass 0  IDiag  1:
 E= -629.949832357645     Delta-E=       -0.101376252618 Rises=F Damp=T
 DIIS: error= 3.20D-02 at cycle   2 NSaved=   2.
 NSaved= 2 IEnMin= 2 EnMin= -629.949832357645     IErMin= 2 ErrMin= 3.20D-02
 ErrMax= 3.20D-02  0.00D+00 EMaxC= 1.00D-01 BMatC= 5.04D-02 BMatP= 3.64D-01
 IDIUse=3 WtCom= 6.80D-01 WtEn= 3.20D-01
 Coeff-Com:  0.201D+00 0.799D+00
 Coeff-En:   0.308D+00 0.692D+00
 Coeff:      0.235D+00 0.765D+00
 Gap=     0.294 Goal=   None    Shift=    0.000
 RMSDP=2.77D-03 MaxDP=6.36D-02 DE=-1.01D-01 OVMax= 1.93D-01

 Cycle   3  Pass 0  IDiag  1:
 E= -630.125943568081     Delta-E=       -0.176111210435 Rises=F Damp=F
 DIIS: error= 3.89D-02 at cycle   3 NSaved=   3.
 NSaved= 3 IEnMin= 3 EnMin= -630.125943568081     IErMin= 2 ErrMin= 3.20D-02
 ErrMax= 3.89D-02  0.00D+00 EMaxC= 1.00D-01 BMatC= 6.08D-02 BMatP= 5.04D-02
 IDIUse=2 WtCom= 0.00D+00 WtEn= 1.00D+00
 Coeff-En:   0.000D+00 0.000D+00 0.100D+01
 Coeff:      0.000D+00 0.000D+00 0.100D+01
 Gap=     0.329 Goal=   None    Shift=    0.000
 RMSDP=5.21D-03 MaxDP=1.33D-01 DE=-1.76D-01 OVMax= 3.06D-01

 Cycle   4  Pass 0  IDiag  1:
 E= -629.888054663132     Delta-E=        0.237888904949 Rises=F Damp=F
 DIIS: error= 1.08D-01 at cycle   4 NSaved=   4.
 NSaved= 4 IEnMin= 3 EnMin= -630.125943568081     IErMin= 2 ErrMin= 3.20D-02
 ErrMax= 1.08D-01  0.00D+00 EMaxC= 1.00D-01 BMatC= 3.67D-01 BMatP= 5.04D-02
 IDIUse=2 WtCom= 0.00D+00 WtEn= 1.00D+00
 Coeff-En:   0.000D+00 0.000D+00 0.797D+00 0.203D+00
 Coeff:      0.000D+00 0.000D+00 0.797D+00 0.203D+00
 Gap=     0.296 Goal=   None    Shift=    0.000
 RMSDP=2.82D-03 MaxDP=7.47D-02 DE= 2.38D-01 OVMax= 1.43D-01

 Cycle   5  Pass 0  IDiag  1:
 E= -630.157450496104     Delta-E=       -0.269395832972 Rises=F Damp=F
 DIIS: error= 2.59D-02 at cycle   5 NSaved=   5.
 NSaved= 5 IEnMin= 5 EnMin= -630.157450496104     IErMin= 5 ErrMin= 2.59D-02
 ErrMax= 2.59D-02  0.00D+00 EMaxC= 1.00D-01 BMatC= 2.42D-02 BMatP= 5.04D-02
 IDIUse=3 WtCom= 7.41D-01 WtEn= 2.59D-01
 Coeff-Com: -0.109D-01 0.523D-01 0.318D+00-0.697D-01 0.711D+00
 Coeff-En:   0.000D+00 0.000D+00 0.323D+00 0.000D+00 0.677D+00
 Coeff:     -0.806D-02 0.387D-01 0.319D+00-0.516D-01 0.702D+00
 Gap=     0.301 Goal=   None    Shift=    0.000
 RMSDP=1.05D-03 MaxDP=2.72D-02 DE=-2.69D-01 OVMax= 4.34D-02

 Cycle   6  Pass 0  IDiag  1:
 E= -630.177113999023     Delta-E=       -0.019663502919 Rises=F Damp=F
 DIIS: error= 2.46D-03 at cycle   6 NSaved=   6.
 NSaved= 6 IEnMin= 6 EnMin= -630.177113999023     IErMin= 6 ErrMin= 2.46D-03
 ErrMax= 2.46D-03  0.00D+00 EMaxC= 1.00D-01 BMatC= 2.72D-04 BMatP= 2.42D-02
 IDIUse=3 WtCom= 9.75D-01 WtEn= 2.46D-02
 Coeff-Com: -0.970D-02 0.247D-01 0.136D+00-0.463D-01 0.405D+00 0.491D+00
 Coeff-En:   0.000D+00 0.000D+00 0.000D+00 0.000D+00 0.000D+00 0.100D+01
 Coeff:     -0.946D-02 0.241D-01 0.132D+00-0.452D-01 0.395D+00 0.504D+00
 Gap=     0.285 Goal=   None    Shift=    0.000
 RMSDP=1.17D-04 MaxDP=3.83D-03 DE=-1.97D-02 OVMax= 6.31D-03

 Cycle   7  Pass 0  IDiag  1:
 E= -630.177331119002     Delta-E=       -0.000217119979 Rises=F Damp=F
 DIIS: error= 4.18D-04 at cycle   7 NSaved=   7.
 NSaved= 7 IEnMin= 7 EnMin= -630.177331119002     IErMin= 7 ErrMin= 4.18D-04
 ErrMax= 4.18D-04  0.00D+00 EMaxC= 1.00D-01 BMatC= 8.32D-06 BMatP= 2.72D-04
 IDIUse=3 WtCom= 9.96D-01 WtEn= 4.18D-03
 Coeff-Com: -0.312D-02 0.752D-02 0.339D-01-0.163D-01 0.120D+00 0.239D+00
 Coeff-Com:  0.619D+00
 Coeff-En:   0.000D+00 0.000D+00 0.000D+00 0.000D+00 0.000D+00 0.000D+00
 Coeff-En:   0.100D+01
 Coeff:     -0.310D-02 0.749D-02 0.338D-01-0.162D-01 0.120D+00 0.238D+00
 Coeff:      0.620D+00
 Gap=     0.285 Goal=   None    Shift=    0.000
 RMSDP=1.79D-05 MaxDP=4.98D-04 DE=-2.17D-04 OVMax= 6.92D-04

 Cycle   8  Pass 0  IDiag  1:
 E= -630.177337488115     Delta-E=       -0.000006369113 Rises=F Damp=F
 DIIS: error= 5.47D-05 at cycle   8 NSaved=   8.
 NSaved= 8 IEnMin= 8 EnMin= -630.177337488115     IErMin= 8 ErrMin= 5.47D-05
 ErrMax= 5.47D-05  0.00D+00 EMaxC= 1.00D-01 BMatC= 5.29D-07 BMatP= 8.32D-06
 IDIUse=1 WtCom= 1.00D+00 WtEn= 0.00D+00
 Coeff-Com: -0.213D-03-0.196D-03 0.217D-02-0.138D-02 0.112D-01 0.768D-01
 Coeff-Com:  0.307D+00 0.605D+00
 Coeff:     -0.213D-03-0.196D-03 0.217D-02-0.138D-02 0.112D-01 0.768D-01
 Coeff:      0.307D+00 0.605D+00
 Gap=     0.285 Goal=   None    Shift=    0.000
 RMSDP=5.51D-06 MaxDP=1.29D-04 DE=-6.37D-06 OVMax= 1.64D-04

 Initial convergence to 1.0D-05 achieved.  Increase integral accuracy.
 Cycle   9  Pass 1  IDiag  1:
 E= -630.177440112938     Delta-E=       -0.000102624823 Rises=F Damp=F
 DIIS: error= 1.79D-05 at cycle   1 NSaved=   1.
 NSaved= 1 IEnMin= 1 EnMin= -630.177440112938     IErMin= 1 ErrMin= 1.79D-05
 ErrMax= 1.79D-05  0.00D+00 EMaxC= 1.00D-01 BMatC= 6.51D-08 BMatP= 6.51D-08
 IDIUse=1 WtCom= 1.00D+00 WtEn= 0.00D+00
 Coeff-Com:  0.100D+01
 Coeff:      0.100D+01
 Gap=     0.285 Goal=   None    Shift=    0.000
 RMSDP=5.51D-06 MaxDP=1.29D-04 DE=-1.03D-04 OVMax= 6.69D-05

 Cycle  10  Pass 1  IDiag  1:
 E= -630.177440189004     Delta-E=       -0.000000076066 Rises=F Damp=F
 DIIS: error= 1.32D-05 at cycle   2 NSaved=   2.
 NSaved= 2 IEnMin= 2 EnMin= -630.177440189004     IErMin= 2 ErrMin= 1.32D-05
 ErrMax= 1.32D-05  0.00D+00 EMaxC= 1.00D-01 BMatC= 1.97D-08 BMatP= 6.51D-08
 IDIUse=1 WtCom= 1.00D+00 WtEn= 0.00D+00
 Coeff-Com:  0.281D+00 0.719D+00
 Coeff:      0.281D+00 0.719D+00
 Gap=     0.285 Goal=   None    Shift=    0.000
 RMSDP=1.63D-06 MaxDP=3.09D-05 DE=-7.61D-08 OVMax= 5.65D-05

 Cycle  11  Pass 1  IDiag  1:
 E= -630.177440192088     Delta-E=       -0.000000003084 Rises=F Damp=F
 DIIS: error= 1.38D-05 at cycle   3 NSaved=   3.
 NSaved= 3 IEnMin= 3 EnMin= -630.177440192088     IErMin= 2 ErrMin= 1.32D-05
 ErrMax= 1.38D-05  0.00D+00 EMaxC= 1.00D-01 BMatC= 1.69D-08 BMatP= 1.97D-08
 IDIUse=1 WtCom= 1.00D+00 WtEn= 0.00D+00
 Coeff-Com: -0.199D-01 0.485D+00 0.535D+00
 Coeff:     -0.199D-01 0.485D+00 0.535D+00
 Gap=     0.285 Goal=   None    Shift=    0.000
 RMSDP=7.46D-07 MaxDP=1.97D-05 DE=-3.08D-09 OVMax= 3.01D-05

 Cycle  12  Pass 1  IDiag  1:
 E= -630.177440203896     Delta-E=       -0.000000011808 Rises=F Damp=F
 DIIS: error= 2.61D-06 at cycle   4 NSaved=   4.
 NSaved= 4 IEnMin= 4 EnMin= -630.177440203896     IErMin= 4 ErrMin= 2.61D-06
 ErrMax= 2.61D-06  0.00D+00 EMaxC= 1.00D-01 BMatC= 3.47D-10 BMatP= 1.69D-08
 IDIUse=1 WtCom= 1.00D+00 WtEn= 0.00D+00
 Coeff-Com: -0.167D-01 0.261D+00 0.297D+00 0.459D+00
 Coeff:     -0.167D-01 0.261D+00 0.297D+00 0.459D+00
 Gap=     0.285 Goal=   None    Shift=    0.000
 RMSDP=1.52D-07 MaxDP=6.30D-06 DE=-1.18D-08 OVMax= 5.67D-06

 Cycle  13  Pass 1  IDiag  1:
 E= -630.177440204183     Delta-E=       -0.000000000287 Rises=F Damp=F
 DIIS: error= 7.05D-07 at cycle   5 NSaved=   5.
 NSaved= 5 IEnMin= 5 EnMin= -630.177440204183     IErMin= 5 ErrMin= 7.05D-07
 ErrMax= 7.05D-07  0.00D+00 EMaxC= 1.00D-01 BMatC= 2.38D-11 BMatP= 3.47D-10
 IDIUse=1 WtCom= 1.00D+00 WtEn= 0.00D+00
 Coeff-Com: -0.670D-02 0.914D-01 0.101D+00 0.248D+00 0.566D+00
 Coeff:     -0.670D-02 0.914D-01 0.101D+00 0.248D+00 0.566D+00
 Gap=     0.285 Goal=   None    Shift=    0.000
 RMSDP=4.71D-08 MaxDP=1.28D-06 DE=-2.87D-10 OVMax= 2.31D-06

 Cycle  14  Pass 1  IDiag  1:
 E= -630.177440204205     Delta-E=       -0.000000000022 Rises=F Damp=F
 DIIS: error= 4.71D-07 at cycle   6 NSaved=   6.
 NSaved= 6 IEnMin= 6 EnMin= -630.177440204205     IErMin= 6 ErrMin= 4.71D-07
 ErrMax= 4.71D-07  0.00D+00 EMaxC= 1.00D-01 BMatC= 7.20D-12 BMatP= 2.38D-11
 IDIUse=1 WtCom= 1.00D+00 WtEn= 0.00D+00
 Coeff-Com: -0.218D-02 0.230D-01 0.235D-01 0.101D+00 0.387D+00 0.467D+00
 Coeff:     -0.218D-02 0.230D-01 0.235D-01 0.101D+00 0.387D+00 0.467D+00
 Gap=     0.285 Goal=   None    Shift=    0.000
 RMSDP=1.78D-08 MaxDP=4.17D-07 DE=-2.21D-11 OVMax= 8.73D-07

 Cycle  15  Pass 1  IDiag  1:
 E= -630.177440204205     Delta-E=        0.000000000001 Rises=F Damp=F
 DIIS: error= 5.93D-08 at cycle   7 NSaved=   7.
 NSaved= 7 IEnMin= 6 EnMin= -630.177440204205     IErMin= 7 ErrMin= 5.93D-08
 ErrMax= 5.93D-08  0.00D+00 EMaxC= 1.00D-01 BMatC= 3.56D-13 BMatP= 7.20D-12
 IDIUse=1 WtCom= 1.00D+00 WtEn= 0.00D+00
 Coeff-Com: -0.439D-03 0.288D-02 0.234D-02 0.279D-01 0.146D+00 0.246D+00
 Coeff-Com:  0.575D+00
 Coeff:     -0.439D-03 0.288D-02 0.234D-02 0.279D-01 0.146D+00 0.246D+00
 Coeff:      0.575D+00
 Gap=     0.285 Goal=   None    Shift=    0.000
 RMSDP=5.06D-09 MaxDP=8.45D-08 DE= 6.82D-13 OVMax= 1.56D-07

 SCF Done:  E(RB3LYP) =  -630.177440204     A.U. after   15 cycles
            NFock= 15  Conv=0.51D-08     -V/T= 2.0085
 KE= 6.248484111319D+02 PE=-3.209268828794D+03 EE= 1.084411842816D+03
 Leave Link  502 at Wed Oct 19 23:05:22 2011, MaxMem=  128000000 cpu:      97.0
 (Enter /home/foresman/gdv/l801.exe)
 DoSCS=F DFT=T ScalE2(SS,OS)=  1.000000  1.000000
 Range of M.O.s used for correlation:     1   151
 NBasis=   151 NAE=    51 NBE=    51 NFC=     0 NFV=     0
 NROrb=    151 NOA=    51 NOB=    51 NVA=   100 NVB=   100
 Leave Link  801 at Wed Oct 19 23:05:22 2011, MaxMem=  128000000 cpu:       0.3
 (Enter /home/foresman/gdv/l1002.exe)
 Minotr:  Closed shell wavefunction.
          Direct CPHF calculation.
          Differentiating once with respect to magnetic field using GIAOs.
          Electric field/nuclear overlap derivatives assumed to be zero.
          Requested convergence is 1.0D-08 RMS, and 1.0D-07 maximum.
          Secondary convergence is 1.0D-12 RMS, and 1.0D-12 maximum.
          NewPWx=T KeepS1=F KeepF1=F KeepIn=T MapXYZ=F SortEE=F KeepMc=T.
          MDV=     127999605 using IRadAn=       2.
 Generate precomputed XC quadrature information.
 Keep R3 ints in memory in canonical form, NReq=67618787.
 FoFCou: FMM=F IPFlag=           0 FMFlag=           0 FMFlg1=           0
         NFxFlg=           0 DoJE=F BraDBF=F KetDBF=F FulRan=T
         wScrn=  0.000000 ICntrl=     600 IOpCl=  0 I1Cent=           0 NGrid=           0
         NMat0=    1 NMatS0=  11476 NMatT0=    0 NMatD0=    1 NMtDS0=    0 NMtDT0=    0
 Symmetry not used in FoFCou.
          Solving linear equations simultaneously, MaxMat=       0.
 FoFJK:  IHMeth= 1 ICntrl=    6127 DoSepK=F KAlg= 0 I1Cent=   0 FoldK=F
 IRaf=       1 NMat=   1 IRICut=       1 DoRegI=T DoRafI=F ISym2E= 0.
          There are     3 degrees of freedom in the 1st order CPHF.  IDoFFX=0 NUNeed=     3.
      3 vectors produced by pass  0 Test12= 1.70D-13 3.33D-08 XBig12= 2.88D+01 9.29D-01.
 AX will form     3 AO Fock derivatives at one time.
      3 vectors produced by pass  1 Test12= 1.70D-13 3.33D-08 XBig12= 3.21D-02 8.79D-02.
      3 vectors produced by pass  2 Test12= 1.70D-13 3.33D-08 XBig12= 2.25D-04 7.78D-03.
      3 vectors produced by pass  3 Test12= 1.70D-13 3.33D-08 XBig12= 4.79D-07 1.32D-04.
      3 vectors produced by pass  4 Test12= 1.70D-13 3.33D-08 XBig12= 1.79D-09 1.23D-05.
      3 vectors produced by pass  5 Test12= 1.70D-13 3.33D-08 XBig12= 4.34D-12 3.81D-07.
 InvSVY:  IOpt=1 It=  1 EMax= 8.88D-16
 Solved reduced A of dimension    18 with     3 vectors.
 Calculating GIAO nuclear magnetic shielding tensors.
 SCF GIAO Magnetic shielding tensor (ppm):
      1  C    Isotropic =   124.3151   Anisotropy =    68.9378
   XX=   169.3445   YX=    -7.8405   ZX=     2.4668
   XY=    -7.5275   YY=   100.0372   ZY=    -0.3564
   XZ=     2.3106   YZ=    -0.3948   ZZ=   103.5636
   Eigenvalues:    99.1925   103.4791   170.2736
      2  C    Isotropic =   173.8926   Anisotropy =    40.9668
   XX=   166.7625   YX=    15.6456   ZX=     0.5696
   XY=    12.9456   YY=   195.2225   ZY=     1.1177
   XZ=     0.4253   YZ=     1.2799   ZZ=   159.6929
   Eigenvalues:   159.6523   160.8217   201.2038
      3  C    Isotropic =   178.6743   Anisotropy =    35.3343
   XX=   169.7105   YX=    -7.3298   ZX=     3.8485
   XY=    -6.8991   YY=   171.6654   ZY=   -14.9019
   XZ=     0.0579   YZ=   -13.6770   ZZ=   194.6471
   Eigenvalues:   161.0013   172.7911   202.2305
      4  C    Isotropic =   178.8191   Anisotropy =    35.4782
   XX=   170.3677   YX=    -8.1268   ZX=    -6.1767
   XY=    -7.9974   YY=   170.5239   ZY=    13.4989
   XZ=    -2.1440   YZ=    12.0161   ZZ=   195.5656
   Eigenvalues:   161.0071   172.9789   202.4712
      5  O    Isotropic =   160.3433   Anisotropy =    76.5852
   XX=   138.0306   YX=    12.7225   ZX=    -3.4908
   XY=   133.8691   YY=   134.5594   ZY=     5.1970
   XZ=     7.8240   YZ=    -3.0514   ZZ=   208.4398
   Eigenvalues:    62.9748   206.6550   211.4000
      6  C    Isotropic =    62.3086   Anisotropy =    62.2563
   XX=     1.8361   YX=   -27.9597   ZX=    -4.9242
   XY=   -46.0593   YY=    90.3812   ZY=    -2.5108
   XZ=    -6.0310   YZ=    -1.4843   ZZ=    94.7083
   Eigenvalues:   -11.9143    95.0272   103.8128
      7  O    Isotropic =    44.2994   Anisotropy =   379.0914
   XX=   -64.0803   YX=    12.8757   ZX=   -23.3990
   XY=    -2.3706   YY=   -98.3584   ZY=    -7.4522
   XZ=    -5.3981   YZ=   -34.1381   ZZ=   295.3368
   Eigenvalues:  -100.0227   -64.1061   297.0270
      8  N    Isotropic =   179.7771   Anisotropy =   131.5914
   XX=   255.4331   YX=   -28.0489   ZX=    -4.8496
   XY=   -49.4487   YY=   142.3011   ZY=    -3.8320
   XZ=    -3.2871   YZ=    -2.0386   ZZ=   141.5971
   Eigenvalues:   129.0185   142.8081   267.5047
      9  C    Isotropic =   158.9602   Anisotropy =    45.3044
   XX=   162.8599   YX=   -13.9532   ZX=    -3.2597
   XY=   -14.0051   YY=   181.6134   ZY=     1.8684
   XZ=     1.2342   YZ=     2.2801   ZZ=   132.4072
   Eigenvalues:   132.3131   155.4042   189.1631
     10  C    Isotropic =   169.7364   Anisotropy =    30.4083
   XX=   180.1414   YX=     6.7985   ZX=    -1.0410
   XY=     6.2118   YY=   182.6884   ZY=    -9.2155
   XZ=     3.4817   YZ=   -15.3548   ZZ=   146.3793
   Eigenvalues:   142.3580   176.8425   190.0085
     11  C    Isotropic =   133.4925   Anisotropy =    59.4848
   XX=   168.4959   YX=    10.4636   ZX=    11.4627
   XY=    14.9161   YY=   131.2692   ZY=     5.4706
   XZ=     1.4491   YZ=     2.2878   ZZ=   100.7123
   Eigenvalues:    99.8569   127.4715   173.1490
     12  C    Isotropic =   152.5386   Anisotropy =    38.9276
   XX=   176.2765   YX=     9.0769   ZX=    -7.6903
   XY=     4.3028   YY=   144.4295   ZY=     5.2137
   XZ=    -7.9885   YZ=    14.5011   ZZ=   136.9098
   Eigenvalues:   127.9432   151.1822   178.4903
     13  O    Isotropic =   278.5871   Anisotropy =    53.9216
   XX=   261.4862   YX=    12.1937   ZX=    -7.9942
   XY=    34.1947   YY=   291.9479   ZY=    -2.5934
   XZ=   -12.8135   YZ=   -27.0624   ZZ=   282.3273
   Eigenvalues:   248.8078   272.4186   314.5349
     14  H    Isotropic =    32.1749   Anisotropy =    17.0411
   XX=    33.8721   YX=     6.7320   ZX=    -1.4380
   XY=     7.5765   YY=    35.6311   ZY=    -5.1651
   XZ=    -1.8862   YZ=    -5.3853   ZZ=    27.0216
   Eigenvalues:    24.1144    28.8747    43.5357
     15  H    Isotropic =    31.8043   Anisotropy =     8.8193
   XX=    36.2743   YX=     2.8962   ZX=     0.3543
   XY=     3.2066   YY=    30.9804   ZY=     0.1674
   XZ=     0.3858   YZ=     0.1486   ZZ=    28.1581
   Eigenvalues:    28.1411    29.5879    37.6838
     16  H    Isotropic =    31.3537   Anisotropy =     8.0243
   XX=    28.9929   YX=     1.2726   ZX=    -0.0684
   XY=     0.4352   YY=    34.2262   ZY=    -4.3434
   XZ=     0.4233   YZ=    -3.1670   ZZ=    30.8422
   Eigenvalues:    28.0139    29.3441    36.7032
     17  H    Isotropic =    31.3925   Anisotropy =     7.9079
   XX=    29.0882   YX=     1.0067   ZX=    -0.0777
   XY=     0.1033   YY=    33.9845   ZY=     4.4026
   XZ=    -0.5450   YZ=     3.2953   ZZ=    31.1048
   Eigenvalues:    28.1007    29.4125    36.6644
     18  H    Isotropic =    32.0058   Anisotropy =     9.1135
   XX=    35.3590   YX=    -2.5593   ZX=     2.7255
   XY=    -2.8415   YY=    29.5194   ZY=    -1.8811
   XZ=     3.0656   YZ=    -1.9091   ZZ=    31.1389
   Eigenvalues:    28.1485    29.7874    38.0814
     19  H    Isotropic =    31.8794   Anisotropy =     7.7813
   XX=    29.6369   YX=    -0.6402   ZX=     0.2968
   XY=    -0.4030   YY=    29.0272   ZY=     0.1370
   XZ=    -0.5759   YZ=     1.5424   ZZ=    36.9742
   Eigenvalues:    28.6741    29.8971    37.0670
     20  H    Isotropic =    29.8239   Anisotropy =     6.5591
   XX=    29.2197   YX=     1.9499   ZX=     2.2967
   XY=     2.5281   YY=    32.5158   ZY=    -2.0994
   XZ=     2.8379   YZ=    -3.9306   ZZ=    27.7363
   Eigenvalues:    24.1250    31.1502    34.1967
     21  H    Isotropic =    31.9966   Anisotropy =     9.1299
   XX=    35.8050   YX=    -2.6057   ZX=    -2.4947
   XY=    -2.8918   YY=    29.3669   ZY=     1.6183
   XZ=    -2.7729   YZ=     1.5739   ZZ=    30.8178
   Eigenvalues:    28.1414    29.7651    38.0832
     22  H    Isotropic =    29.7969   Anisotropy =     6.5251
   XX=    29.6132   YX=     1.7209   ZX=    -2.1746
   XY=     2.4163   YY=    32.2130   ZY=     2.5722
   XZ=    -2.6499   YZ=     4.2102   ZZ=    27.5645
   Eigenvalues:    24.0396    31.2043    34.1470
     23  H    Isotropic =    31.8081   Anisotropy =     7.9321
   XX=    29.5355   YX=    -0.4463   ZX=    -0.9848
   XY=    -0.3846   YY=    29.0031   ZY=    -0.4575
   XZ=    -0.0584   YZ=    -1.9726   ZZ=    36.8858
   Eigenvalues:    28.5672    29.7610    37.0962
     24  H    Isotropic =    29.5922   Anisotropy =     7.4663
   XX=    30.6928   YX=     0.6224   ZX=    -1.8081
   XY=     0.8505   YY=    30.9656   ZY=    -4.9637
   XZ=    -1.7822   YZ=    -3.9322   ZZ=    27.1182
   Eigenvalues:    24.0088    30.1981    34.5697
     25  H    Isotropic =    29.7337   Anisotropy =     7.5609
   XX=    30.1843   YX=    -0.1475   ZX=     2.2612
   XY=     0.0716   YY=    30.8978   ZY=     4.6069
   XZ=     2.2881   YZ=     4.6888   ZZ=    28.1190
   Eigenvalues:    24.0822    30.3447    34.7743
     26  H    Isotropic =    30.8241   Anisotropy =    10.1490
   XX=    30.8996   YX=    -3.0335   ZX=    -1.8046
   XY=    -4.0487   YY=    34.8027   ZY=     2.5635
   XZ=    -1.2592   YZ=     1.9986   ZZ=    26.7698
   Eigenvalues:    26.0657    28.8164    37.5900
     27  H    Isotropic =    30.5717   Anisotropy =     8.2403
   XX=    31.4924   YX=    -0.2382   ZX=     3.1119
   XY=    -1.0237   YY=    28.1070   ZY=    -3.6604
   XZ=     3.1921   YZ=    -2.9493   ZZ=    32.1158
   Eigenvalues:    26.0154    29.6345    36.0652
     28  H    Isotropic =    28.6267   Anisotropy =     4.9841
   XX=    28.9325   YX=     0.7034   ZX=    -0.1365
   XY=     0.2387   YY=    25.5884   ZY=    -0.1209
   XZ=    -2.4645   YZ=    -0.3364   ZZ=    31.3591
   Eigenvalues:    25.5229    28.4077    31.9494
     29  H    Isotropic =    29.8774   Anisotropy =     8.4202
   XX=    30.6006   YX=     2.7710   ZX=     1.2884
   XY=     2.8433   YY=    28.5523   ZY=     4.2662
   XZ=     1.7611   YZ=     3.8150   ZZ=    30.4793
   Eigenvalues:    25.0168    29.1245    35.4909
     30  H    Isotropic =    29.3285   Anisotropy =     6.1524
   XX=    30.4134   YX=     0.7140   ZX=    -0.8307
   XY=     0.3718   YY=    32.1158   ZY=    -3.1543
   XZ=    -0.1305   YZ=    -2.8720   ZZ=    25.4563
   Eigenvalues:    24.2848    30.2706    33.4301
 End of Minotr F.D. properties file   721 does not exist.
 End of Minotr F.D. properties file   722 does not exist.
 Leave Link 1002 at Wed Oct 19 23:05:32 2011, MaxMem=  128000000 cpu:      79.9
 (Enter /home/foresman/gdv/l1101.exe)
 Using compressed storage, NAtomX=    30.
 Will process     31 centers per pass.
 Leave Link 1101 at Wed Oct 19 23:05:33 2011, MaxMem=  128000000 cpu:       1.8
 (Enter /home/foresman/gdv/l1102.exe)
 Symmetrizing basis deriv contribution to polar:
 IMax=3 JMax=2 DiffMx= 0.00D+00
 Leave Link 1102 at Wed Oct 19 23:05:33 2011, MaxMem=  128000000 cpu:       0.4
 (Enter /home/foresman/gdv/l1110.exe)
 Forming Gx(P) for the SCF density, NAtomX=    30.
 Integral derivatives from FoFJK, PRISM(SPDF).
 Do as many integral derivatives as possible in FoFJK.
 G2DrvN: MDV=     127999656.
 G2DrvN: will do    31 centers at a time, making    1 passes.
 Calling FoFCou, ICntrl=  3107 FMM=F I1Cent=   0 AccDes= 0.00D+00.
 FoFJK:  IHMeth= 1 ICntrl=    3107 DoSepK=F KAlg= 0 I1Cent=   0 FoldK=F
 IRaf=       0 NMat=   1 IRICut=       1 DoRegI=T DoRafI=F ISym2E= 0.
 FoFCou: FMM=F IPFlag=           0 FMFlag=      100000 FMFlg1=           0
         NFxFlg=           0 DoJE=F BraDBF=F KetDBF=F FulRan=T
         wScrn=  0.000000 ICntrl=    3107 IOpCl=  0 I1Cent=           0 NGrid=           0
         NMat0=    1 NMatS0=      1 NMatT0=    0 NMatD0=    1 NMtDS0=    0 NMtDT0=    0
 Symmetry not used in FoFCou.
 End of G2Drv F.D. properties file   721 does not exist.
 End of G2Drv F.D. properties file   722 does not exist.
 Leave Link 1110 at Wed Oct 19 23:06:04 2011, MaxMem=  128000000 cpu:     247.4
 (Enter /home/foresman/gdv/l1002.exe)
 Minotr:  Closed shell wavefunction.
          IDoAtm=111111111111111111111111111111
          Direct CPHF calculation.
          Differentiating once with respect to electric field.
                with respect to dipole field.
          Differentiating once with respect to nuclear coordinates.
          Requested convergence is 1.0D-08 RMS, and 1.0D-07 maximum.
          Secondary convergence is 1.0D-12 RMS, and 1.0D-12 maximum.
          NewPWx=T KeepS1=F KeepF1=F KeepIn=T MapXYZ=F SortEE=F KeepMc=T.
          MDV=     127999545 using IRadAn=       2.
 Generate precomputed XC quadrature information.
 Keep R1 ints in memory in canonical form, NReq=67619516.
 FoFCou: FMM=F IPFlag=           0 FMFlag=           0 FMFlg1=           0
         NFxFlg=           0 DoJE=F BraDBF=F KetDBF=F FulRan=T
         wScrn=  0.000000 ICntrl=     600 IOpCl=  0 I1Cent=           0 NGrid=           0
         NMat0=    1 NMatS0=  11476 NMatT0=    0 NMatD0=    1 NMtDS0=    0 NMtDT0=    0
 Symmetry not used in FoFCou.
          Solving linear equations simultaneously, MaxMat=       0.
          There are    93 degrees of freedom in the 1st order CPHF.  IDoFFX=5 NUNeed=    93.
     90 vectors produced by pass  0 Test12= 5.48D-15 1.08D-09 XBig12= 7.64D+01 3.55D+00.
 AX will form    90 AO Fock derivatives at one time.
     90 vectors produced by pass  1 Test12= 5.48D-15 1.08D-09 XBig12= 1.75D+01 1.41D+00.
     90 vectors produced by pass  2 Test12= 5.48D-15 1.08D-09 XBig12= 7.19D-02 3.46D-02.
     90 vectors produced by pass  3 Test12= 5.48D-15 1.08D-09 XBig12= 9.84D-05 1.28D-03.
     90 vectors produced by pass  4 Test12= 5.48D-15 1.08D-09 XBig12= 7.19D-08 2.56D-05.
     43 vectors produced by pass  5 Test12= 5.48D-15 1.08D-09 XBig12= 4.24D-11 6.86D-07.
      3 vectors produced by pass  6 Test12= 5.48D-15 1.08D-09 XBig12= 1.77D-14 1.12D-08.
 InvSVY:  IOpt=1 It=  1 EMax= 1.95D-14
 Solved reduced A of dimension   496 with    93 vectors.
 FullF1:  Do perturbations    1 to     3.
 Isotropic polarizability for W=    0.000000      103.83 Bohr**3.
 Dipole-magnetic dipole polarizability for W=    0.000000:
                 1             2             3 
      1   0.130661D+01 -0.621025D+00 -0.125052D+02
      2   0.790030D-01  0.345109D+01  0.344660D+02
      3   0.167209D+02 -0.807560D+01 -0.565518D+01
 DQ contribution to OR G for W=    0.000000:
                 1             2             3 
      1   0.107983D+01  0.702146D+01 -0.319487D+02
      2  -0.750043D+01  0.947843D+01  0.880991D+02
      3   0.287883D+02 -0.615043D+02 -0.105583D+02
 Optical Rotation G' tensor for W=    0.000000:
                 1             2             3 
      1  -0.832086D+00  0.756345D-01 -0.144898D+01
      2   0.756345D-01  0.195324D+00 -0.327326D+01
      3  -0.144898D+01 -0.327326D+01 -0.260715D+00
 OR G Eigenvalues:    -3.6901    -0.7158     3.5084  Iso=     0.2992
 Eigenvectors:
   (1)   0.349156   0.599758   0.719986
   (2)   0.905421  -0.413912  -0.094288
   (3)  -0.241460  -0.684812   0.687553
 w=    0.000000 a.u., Optical Rotation Beta=      0.2992 au.
 Molar Mass =    187.2382 grams/mole, [Alpha]D (static) =       61.76 deg.
 AAT (total):
  0.0102 -0.0272 -0.1835
 -0.0053  0.0018  0.3945
  0.1002 -0.3753 -0.0050
 -0.0039 -0.0018  0.1566
  0.0076  0.0045 -0.1975
 -0.1047  0.0261 -0.0007
  0.0567 -0.1817 -0.1643
  0.1469 -0.1251 -0.1955
  0.0488  0.1933  0.0845
 -0.0510  0.1819 -0.1538
 -0.1389  0.1196 -0.1998
  0.0412  0.2143 -0.0915
 -0.0051  0.0521  0.4095
 -0.0115  0.0138 -0.2406
 -0.5534  0.4554  0.0049
 -0.0423 -0.1284  0.6291
  0.0767  0.0231 -0.2903
 -0.2176 -0.0795  0.0376
 -0.0092  0.0464 -1.0525
 -0.0795 -0.0469  0.1472
  1.0795  0.2201  0.0274
  0.0372  0.0436 -0.2746
 -0.0224 -0.0649  0.4136
  0.0383 -0.4267  0.0364
 -0.0195 -0.0599 -0.1013
  0.0861  0.0384 -0.3249
 -0.0329  0.2522 -0.0769
 -0.0153  0.0763  0.1782
  0.0051  0.1143  0.2164
 -0.1225  0.0008 -0.0476
  0.0451  0.0205 -0.1643
  0.0318  0.1364 -0.7744
  0.0150  0.5767 -0.1330
 -0.0402  0.1255 -0.0521
 -0.0247 -0.0171 -0.0930
  0.0768  0.1850  0.0111
  0.0235  0.0247 -0.1037
  0.0287 -0.4885  0.9119
  0.1449 -1.0966  0.4908
 -0.0104  0.0514  0.3464
 -0.1598  0.3601 -0.1652
 -0.1696  0.5575 -0.3987
 -0.0091  0.0130  0.1778
 -0.0082  0.0003  0.2248
  0.0420 -0.2779  0.0076
 -0.0477 -0.0507 -0.0780
  0.2037 -0.1224 -0.0743
 -0.0275  0.1633  0.2180
  0.0579  0.0328 -0.0532
 -0.1958  0.1183 -0.0778
 -0.0216  0.1773 -0.2228
 -0.0223 -0.1027 -0.0026
 -0.0477  0.0129  0.2712
 -0.0374 -0.2323  0.0107
 -0.0597  0.0642 -0.0203
 -0.0666  0.1871 -0.0261
  0.1966  0.2182 -0.0740
 -0.0391  0.0224  0.2047
  0.0710 -0.0602 -0.1755
 -0.2142 -0.0241  0.1198
  0.0286  0.1333  0.0063
  0.0334 -0.0167  0.2753
 -0.0328 -0.2236 -0.0122
  0.0320 -0.0401  0.2122
 -0.0493  0.0720 -0.1742
 -0.2020 -0.0163 -0.1259
  0.0475 -0.0896 -0.0266
  0.0642 -0.1944 -0.0303
  0.2000  0.1997  0.0952
  0.0542 -0.1288 -0.0499
  0.1415  0.0182  0.0952
 -0.0503 -0.0540 -0.1515
 -0.0496  0.1493 -0.0468
 -0.1523 -0.0010  0.0506
 -0.1153 -0.0771  0.1269
  0.0370  0.1376 -0.2003
 -0.1520 -0.0939 -0.0008
  0.0775  0.0859  0.0716
 -0.0117 -0.2436 -0.0185
  0.1745 -0.0525 -0.1479
 -0.0865 -0.1026  0.0351
  0.0113  0.0080  0.0341
 -0.0717 -0.0080  0.0412
 -0.0097 -0.2662  0.0410
  0.0083 -0.2249  0.0554
  0.1642  0.0184 -0.0779
  0.1076 -0.1172  0.0308
  0.0450  0.0874  0.1797
 -0.1535  0.0370  0.0640
 -0.0407 -0.0198 -0.1460
 End of Minotr F.D. properties file   721 does not exist.
 End of Minotr F.D. properties file   722 does not exist.
 Leave Link 1002 at Wed Oct 19 23:06:33 2011, MaxMem=  128000000 cpu:     230.3
 (Enter /home/foresman/gdv/l601.exe)
 Copying SCF densities to generalized density rwf, IOpCl= 0 IROHF=0.

 **********************************************************************

            Population analysis using the SCF density.

 **********************************************************************

 Orbital symmetries:
       Occupied  (A) (A) (A) (A) (A) (A) (A) (A) (A) (A) (A) (A)
                 (A) (A) (A) (A) (A) (A) (A) (A) (A) (A) (A) (A)
                 (A) (A) (A) (A) (A) (A) (A) (A) (A) (A) (A) (A)
                 (A) (A) (A) (A) (A) (A) (A) (A) (A) (A) (A) (A)
                 (A) (A) (A)
       Virtual   (A) (A) (A) (A) (A) (A) (A) (A) (A) (A) (A) (A)
                 (A) (A) (A) (A) (A) (A) (A) (A) (A) (A) (A) (A)
                 (A) (A) (A) (A) (A) (A) (A) (A) (A) (A) (A) (A)
                 (A) (A) (A) (A) (A) (A) (A) (A) (A) (A) (A) (A)
                 (A) (A) (A) (A) (A) (A) (A) (A) (A) (A) (A) (A)
                 (A) (A) (A) (A) (A) (A) (A) (A) (A) (A) (A) (A)
                 (A) (A) (A) (A) (A) (A) (A) (A) (A) (A) (A) (A)
                 (A) (A) (A) (A) (A) (A) (A) (A) (A) (A) (A) (A)
                 (A) (A) (A) (A)
 The electronic state is 1-A.
 Alpha  occ. eigenvalues --  -19.05763 -19.03435 -18.99552 -14.27777 -10.25904
 Alpha  occ. eigenvalues --  -10.18686 -10.18421 -10.16185 -10.15600 -10.12767
 Alpha  occ. eigenvalues --  -10.10898 -10.10087 -10.10032  -1.07761  -1.01493
 Alpha  occ. eigenvalues --   -0.99403  -0.94169  -0.80928  -0.78096  -0.73821
 Alpha  occ. eigenvalues --   -0.68930  -0.68540  -0.65452  -0.59876  -0.58068
 Alpha  occ. eigenvalues --   -0.54332  -0.52652  -0.49707  -0.46961  -0.45598
 Alpha  occ. eigenvalues --   -0.44753  -0.44130  -0.43873  -0.43210  -0.41616
 Alpha  occ. eigenvalues --   -0.40435  -0.38994  -0.38540  -0.38135  -0.37509
 Alpha  occ. eigenvalues --   -0.37063  -0.36114  -0.35409  -0.33925  -0.33897
 Alpha  occ. eigenvalues --   -0.32097  -0.31353  -0.26737  -0.26240  -0.24421
 Alpha  occ. eigenvalues --   -0.22683
 Alpha virt. eigenvalues --    0.05783   0.07897   0.10189   0.11565   0.11935
 Alpha virt. eigenvalues --    0.14148   0.15805   0.16345   0.16844   0.17442
 Alpha virt. eigenvalues --    0.17887   0.17988   0.19004   0.19666   0.19864
 Alpha virt. eigenvalues --    0.20306   0.21279   0.21817   0.22025   0.23655
 Alpha virt. eigenvalues --    0.24073   0.24753   0.25490   0.26386   0.27547
 Alpha virt. eigenvalues --    0.28302   0.28650   0.29393   0.30285   0.42305
 Alpha virt. eigenvalues --    0.49279   0.64861   0.65999   0.66075   0.66446
 Alpha virt. eigenvalues --    0.68096   0.69379   0.69697   0.72530   0.74401
 Alpha virt. eigenvalues --    0.75096   0.76300   0.77029   0.77484   0.77865
 Alpha virt. eigenvalues --    0.80201   0.81145   0.83226   0.86236   0.87023
 Alpha virt. eigenvalues --    0.90131   0.92744   0.94107   0.95189   0.96490
 Alpha virt. eigenvalues --    0.97621   0.99326   1.00849   1.02042   1.04631
 Alpha virt. eigenvalues --    1.06283   1.06573   1.07415   1.08232   1.08571
 Alpha virt. eigenvalues --    1.09886   1.10653   1.11389   1.11922   1.13556
 Alpha virt. eigenvalues --    1.14678   1.15669   1.16260   1.17915   1.22234
 Alpha virt. eigenvalues --    1.28763   1.45601   1.53491   1.56051   1.58195
 Alpha virt. eigenvalues --    1.61536   1.63846   1.65940   1.71744   1.72502
 Alpha virt. eigenvalues --    1.73943   1.77341   1.82436   1.83170   1.95749
 Alpha virt. eigenvalues --    1.99003   1.99103   2.12660   2.14157   2.27702
 Alpha virt. eigenvalues --    2.34968   2.84591   3.09342   3.31504   3.41433
          Condensed to atoms (all electrons):
              1          2          3          4          5          6
     1  C    5.284913   0.289557   0.249000   0.249224   0.196910  -0.050302
     2  C    0.289557   5.353132  -0.082193  -0.081784  -0.038974   0.003848
     3  C    0.249000  -0.082193   5.475940  -0.084720  -0.036160  -0.007901
     4  C    0.249224  -0.081784  -0.084720   5.473802  -0.036086  -0.007970
     5  O    0.196910  -0.038974  -0.036160  -0.036086   8.328522   0.229758
     6  C   -0.050302   0.003848  -0.007901  -0.007970   0.229758   4.285301
     7  O    0.001332   0.000063  -0.009788  -0.009594  -0.045610   0.470312
     8  N    0.002805  -0.000044  -0.000284  -0.000293  -0.078607   0.197361
     9  C   -0.000148  -0.000043   0.000025   0.000028   0.010060  -0.029998
    10  C   -0.000004   0.000000   0.000000   0.000000   0.000282   0.002806
    11  C    0.000001   0.000000   0.000000   0.000000  -0.000020   0.004961
    12  C   -0.000072   0.000001   0.000003   0.000003   0.001500  -0.046653
    13  O    0.000000   0.000000   0.000000   0.000000   0.000000  -0.000007
    14  H    0.000000   0.000000   0.000000   0.000000   0.000000   0.000000
    15  H   -0.044634   0.350526   0.001235   0.001167   0.001901  -0.000040
    16  H   -0.038353   0.360354   0.004543  -0.003539   0.001990  -0.000002
    17  H   -0.038430   0.360356  -0.003587   0.004538   0.001959  -0.000008
    18  H   -0.035799  -0.000414   0.340023   0.000868   0.001570   0.000337
    19  H   -0.040233  -0.003157   0.357987   0.004351   0.001057   0.000459
    20  H   -0.036575   0.003584   0.342541  -0.004037  -0.003606   0.001961
    21  H   -0.035730  -0.000441   0.000838   0.340495   0.001573   0.000333
    22  H   -0.036543   0.003581  -0.004072   0.343234  -0.003617   0.001937
    23  H   -0.040211  -0.003157   0.004340   0.358393   0.001034   0.000476
    24  H   -0.000033   0.000017   0.000007  -0.000011   0.002917  -0.001395
    25  H   -0.000028   0.000008  -0.000011   0.000006   0.002469  -0.002435
    26  H    0.000000   0.000000   0.000000   0.000000   0.000000  -0.000016
    27  H    0.000000   0.000000   0.000000   0.000000   0.000000  -0.000138
    28  H    0.000000   0.000000   0.000000   0.000000   0.000000  -0.000168
    29  H    0.000001   0.000000   0.000000   0.000000  -0.000004  -0.001098
    30  H    0.000001   0.000000  -0.000001   0.000001   0.000080   0.001252
              7          8          9         10         11         12
     1  C    0.001332   0.002805  -0.000148  -0.000004   0.000001  -0.000072
     2  C    0.000063  -0.000044  -0.000043   0.000000   0.000000   0.000001
     3  C   -0.009788  -0.000284   0.000025   0.000000   0.000000   0.000003
     4  C   -0.009594  -0.000293   0.000028   0.000000   0.000000   0.000003
     5  O   -0.045610  -0.078607   0.010060   0.000282  -0.000020   0.001500
     6  C    0.470312   0.197361  -0.029998   0.002806   0.004961  -0.046653
     7  O    8.143599  -0.069897   0.001137  -0.000026   0.000162   0.001503
     8  N   -0.069897   7.429797   0.226243  -0.048615  -0.043370   0.209840
     9  C    0.001137   0.226243   5.198791   0.220852  -0.079689  -0.067500
    10  C   -0.000026  -0.048615   0.220852   5.550620   0.232144  -0.112634
    11  C    0.000162  -0.043370  -0.079689   0.232144   5.272693   0.177821
    12  C    0.001503   0.209840  -0.067500  -0.112634   0.177821   5.424874
    13  O    0.000000   0.000653   0.001549  -0.041126   0.273212  -0.046607
    14  H    0.000000  -0.000007  -0.000241   0.006368  -0.045855  -0.000862
    15  H    0.000002   0.000000   0.000001   0.000000   0.000000   0.000000
    16  H    0.000001  -0.000006   0.000011   0.000000   0.000000   0.000000
    17  H    0.000001  -0.000006   0.000020   0.000000   0.000000   0.000000
    18  H    0.000087   0.000001   0.000000   0.000000   0.000000   0.000000
    19  H    0.000034  -0.000008   0.000001   0.000000   0.000000   0.000000
    20  H    0.024150   0.000143  -0.000010   0.000000   0.000000   0.000004
    21  H    0.000080   0.000001   0.000000   0.000000   0.000000   0.000000
    22  H    0.023601   0.000139  -0.000009   0.000000   0.000000   0.000004
    23  H    0.000034  -0.000007   0.000000   0.000000   0.000000   0.000000
    24  H    0.000009  -0.036938   0.371405  -0.032847   0.004077   0.001960
    25  H    0.000015  -0.041772   0.365649  -0.038864  -0.000886   0.002831
    26  H    0.000000   0.002057  -0.032726   0.376647  -0.030732   0.004621
    27  H    0.000000   0.001489  -0.033664   0.351258  -0.043561  -0.003277
    28  H    0.000002   0.004394   0.005743  -0.055283   0.338572  -0.068733
    29  H    0.000279  -0.036666   0.003716  -0.005547  -0.046804   0.342564
    30  H    0.007562  -0.037908   0.002536   0.004544  -0.022866   0.359744
             13         14         15         16         17         18
     1  C    0.000000   0.000000  -0.044634  -0.038353  -0.038430  -0.035799
     2  C    0.000000   0.000000   0.350526   0.360354   0.360356  -0.000414
     3  C    0.000000   0.000000   0.001235   0.004543  -0.003587   0.340023
     4  C    0.000000   0.000000   0.001167  -0.003539   0.004538   0.000868
     5  O    0.000000   0.000000   0.001901   0.001990   0.001959   0.001570
     6  C   -0.000007   0.000000  -0.000040  -0.000002  -0.000008   0.000337
     7  O    0.000000   0.000000   0.000002   0.000001   0.000001   0.000087
     8  N    0.000653  -0.000007   0.000000  -0.000006  -0.000006   0.000001
     9  C    0.001549  -0.000241   0.000001   0.000011   0.000020   0.000000
    10  C   -0.041126   0.006368   0.000000   0.000000   0.000000   0.000000
    11  C    0.273212  -0.045855   0.000000   0.000000   0.000000   0.000000
    12  C   -0.046607  -0.000862   0.000000   0.000000   0.000000   0.000000
    13  O    8.134643   0.245039   0.000000   0.000000   0.000000   0.000000
    14  H    0.245039   0.462383   0.000000   0.000000   0.000000   0.000000
    15  H    0.000000   0.000000   0.549265  -0.023863  -0.023961   0.001655
    16  H    0.000000   0.000000  -0.023863   0.524408  -0.025927  -0.000083
    17  H    0.000000   0.000000  -0.023961  -0.025927   0.525513   0.000161
    18  H    0.000000   0.000000   0.001655  -0.000083   0.000161   0.554148
    19  H    0.000000   0.000000   0.000122  -0.000049   0.003774  -0.024727
    20  H    0.000000   0.000000   0.000011  -0.000085  -0.000045  -0.020569
    21  H    0.000000   0.000000   0.001653   0.000156  -0.000083   0.001172
    22  H    0.000000   0.000000   0.000010  -0.000047  -0.000085   0.000219
    23  H    0.000000   0.000000   0.000125   0.003748  -0.000048  -0.000069
    24  H   -0.000011   0.000002   0.000000   0.000077  -0.000013   0.000000
    25  H   -0.000014   0.000001   0.000000  -0.000011   0.000064   0.000000
    26  H    0.001129  -0.000086   0.000000   0.000000   0.000000   0.000000
    27  H    0.004543  -0.000193   0.000000   0.000000   0.000000   0.000000
    28  H   -0.033661  -0.004543   0.000000   0.000000   0.000000   0.000000
    29  H    0.006000  -0.000346   0.000000   0.000000   0.000000   0.000000
    30  H    0.000759   0.000499   0.000000   0.000000   0.000000   0.000000
             19         20         21         22         23         24
     1  C   -0.040233  -0.036575  -0.035730  -0.036543  -0.040211  -0.000033
     2  C   -0.003157   0.003584  -0.000441   0.003581  -0.003157   0.000017
     3  C    0.357987   0.342541   0.000838  -0.004072   0.004340   0.000007
     4  C    0.004351  -0.004037   0.340495   0.343234   0.358393  -0.000011
     5  O    0.001057  -0.003606   0.001573  -0.003617   0.001034   0.002917
     6  C    0.000459   0.001961   0.000333   0.001937   0.000476  -0.001395
     7  O    0.000034   0.024150   0.000080   0.023601   0.000034   0.000009
     8  N   -0.000008   0.000143   0.000001   0.000139  -0.000007  -0.036938
     9  C    0.000001  -0.000010   0.000000  -0.000009   0.000000   0.371405
    10  C    0.000000   0.000000   0.000000   0.000000   0.000000  -0.032847
    11  C    0.000000   0.000000   0.000000   0.000000   0.000000   0.004077
    12  C    0.000000   0.000004   0.000000   0.000004   0.000000   0.001960
    13  O    0.000000   0.000000   0.000000   0.000000   0.000000  -0.000011
    14  H    0.000000   0.000000   0.000000   0.000000   0.000000   0.000002
    15  H    0.000122   0.000011   0.001653   0.000010   0.000125   0.000000
    16  H   -0.000049  -0.000085   0.000156  -0.000047   0.003748   0.000077
    17  H    0.003774  -0.000045  -0.000083  -0.000085  -0.000048  -0.000013
    18  H   -0.024727  -0.020569   0.001172   0.000219  -0.000069   0.000000
    19  H    0.536809  -0.023408  -0.000069   0.000009  -0.000098  -0.000001
    20  H   -0.023408   0.484125   0.000217   0.002910   0.000009   0.000000
    21  H   -0.000069   0.000217   0.553888  -0.020847  -0.024671   0.000000
    22  H    0.000009   0.002910  -0.020847   0.483755  -0.023317   0.000003
    23  H   -0.000098   0.000009  -0.024671  -0.023317   0.534428   0.000013
    24  H   -0.000001   0.000000   0.000000   0.000003   0.000013   0.514353
    25  H    0.000016   0.000004   0.000000  -0.000001  -0.000001  -0.039195
    26  H    0.000000   0.000000   0.000000   0.000000   0.000000   0.000849
    27  H    0.000000   0.000000   0.000000   0.000000   0.000000  -0.004579
    28  H    0.000000   0.000000   0.000000   0.000000   0.000000  -0.000029
    29  H    0.000000   0.000000   0.000000   0.000002   0.000000   0.000371
    30  H    0.000000   0.000010   0.000000  -0.000006   0.000000  -0.000122
             25         26         27         28         29         30
     1  C   -0.000028   0.000000   0.000000   0.000000   0.000001   0.000001
     2  C    0.000008   0.000000   0.000000   0.000000   0.000000   0.000000
     3  C   -0.000011   0.000000   0.000000   0.000000   0.000000  -0.000001
     4  C    0.000006   0.000000   0.000000   0.000000   0.000000   0.000001
     5  O    0.002469   0.000000   0.000000   0.000000  -0.000004   0.000080
     6  C   -0.002435  -0.000016  -0.000138  -0.000168  -0.001098   0.001252
     7  O    0.000015   0.000000   0.000000   0.000002   0.000279   0.007562
     8  N   -0.041772   0.002057   0.001489   0.004394  -0.036666  -0.037908
     9  C    0.365649  -0.032726  -0.033664   0.005743   0.003716   0.002536
    10  C   -0.038864   0.376647   0.351258  -0.055283  -0.005547   0.004544
    11  C   -0.000886  -0.030732  -0.043561   0.338572  -0.046804  -0.022866
    12  C    0.002831   0.004621  -0.003277  -0.068733   0.342564   0.359744
    13  O   -0.000014   0.001129   0.004543  -0.033661   0.006000   0.000759
    14  H    0.000001  -0.000086  -0.000193  -0.004543  -0.000346   0.000499
    15  H    0.000000   0.000000   0.000000   0.000000   0.000000   0.000000
    16  H   -0.000011   0.000000   0.000000   0.000000   0.000000   0.000000
    17  H    0.000064   0.000000   0.000000   0.000000   0.000000   0.000000
    18  H    0.000000   0.000000   0.000000   0.000000   0.000000   0.000000
    19  H    0.000016   0.000000   0.000000   0.000000   0.000000   0.000000
    20  H    0.000004   0.000000   0.000000   0.000000   0.000000   0.000010
    21  H    0.000000   0.000000   0.000000   0.000000   0.000000   0.000000
    22  H   -0.000001   0.000000   0.000000   0.000000   0.000002  -0.000006
    23  H   -0.000001   0.000000   0.000000   0.000000   0.000000   0.000000
    24  H   -0.039195   0.000849  -0.004579  -0.000029   0.000371  -0.000122
    25  H    0.541348  -0.002395   0.002878   0.000694  -0.000217   0.000104
    26  H   -0.002395   0.503517  -0.024088  -0.005054  -0.000141  -0.000055
    27  H    0.002878  -0.024088   0.517033   0.005097   0.002815  -0.000037
    28  H    0.000694  -0.005054   0.005097   0.625537   0.005183  -0.003999
    29  H   -0.000217  -0.000141   0.002815   0.005183   0.548539  -0.035459
    30  H    0.000104  -0.000055  -0.000037  -0.003999  -0.035459   0.506154
 Mulliken charges:
              1
     1  C    0.123352
     2  C   -0.514820
     3  C   -0.547767
     4  C   -0.548076
     5  O   -0.540900
     6  C    0.947030
     7  O   -0.539053
     8  N   -0.680493
     9  C   -0.163739
    10  C   -0.410574
    11  C    0.010139
    12  C   -0.180936
    13  O   -0.546100
    14  H    0.337839
    15  H    0.184823
    16  H    0.196677
    17  H    0.195808
    18  H    0.181420
    19  H    0.187132
    20  H    0.228668
    21  H    0.181434
    22  H    0.229137
    23  H    0.188978
    24  H    0.219114
    25  H    0.209742
    26  H    0.206472
    27  H    0.224422
    28  H    0.186249
    29  H    0.216813
    30  H    0.217208
 Sum of Mulliken charges =   0.00000
 Mulliken charges with hydrogens summed into heavy atoms:
              1
     1  C    0.123352
     2  C    0.062489
     3  C    0.049453
     4  C    0.051473
     5  O   -0.540900
     6  C    0.947030
     7  O   -0.539053
     8  N   -0.680493
     9  C    0.265118
    10  C    0.020320
    11  C    0.196388
    12  C    0.253084
    13  O   -0.208261
 Sum of Mulliken charges with hydrogens summed into heavy atoms =   0.00000
 APT charges:
              1
     1  C    0.653843
     2  C   -0.028232
     3  C   -0.107915
     4  C   -0.107927
     5  O   -0.969927
     6  C    1.440095
     7  O   -0.787176
     8  N   -0.868107
     9  C    0.350004
    10  C    0.011181
    11  C    0.482725
    12  C    0.239282
    13  O   -0.517894
    14  H    0.213432
    15  H   -0.001938
    16  H    0.008982
    17  H    0.008012
    18  H   -0.001041
    19  H    0.000273
    20  H    0.079990
    21  H   -0.001245
    22  H    0.079909
    23  H    0.001685
    24  H   -0.020947
    25  H   -0.038868
    26  H   -0.000896
    27  H    0.011319
    28  H   -0.087014
    29  H   -0.049484
    30  H    0.007879
 Sum of APT charges =   0.00000
 APT charges with hydrogens summed into heavy atoms:
              1
     1  C    0.653843
     2  C   -0.013177
     3  C   -0.028692
     4  C   -0.027578
     5  O   -0.969927
     6  C    1.440095
     7  O   -0.787176
     8  N   -0.868107
     9  C    0.290189
    10  C    0.021604
    11  C    0.395712
    12  C    0.197678
    13  O   -0.304462
 Sum of APT charges with hydrogens summed into heavy atoms =   0.00000
 Electronic spatial extent (au):  <R**2>=           3324.2115
 Charge=              0.0000 electrons
 Dipole moment (field-independent basis, Debye):
    X=             -0.5212    Y=              1.2188    Z=              1.2308  Tot=              1.8089
 Quadrupole moment (field-independent basis, Debye-Ang):
   XX=            -74.3262   YY=            -80.3137   ZZ=            -77.7077
   XY=              6.6155   XZ=             -4.9762   YZ=             -1.3599
 Traceless Quadrupole moment (field-independent basis, Debye-Ang):
   XX=              3.1230   YY=             -2.8645   ZZ=             -0.2585
   XY=              6.6155   XZ=             -4.9762   YZ=             -1.3599
 Octapole moment (field-independent basis, Debye-Ang**2):
  XXX=             20.8050  YYY=              4.4944  ZZZ=             -0.8407  XYY=            -25.6217
  XXY=            -31.2025  XXZ=             23.3456  XZZ=             -8.2556  YZZ=             -0.8808
  YYZ=              1.8870  XYZ=              4.4122
 Hexadecapole moment (field-independent basis, Debye-Ang**3):
 XXXX=          -3417.5380 YYYY=           -605.7774 ZZZZ=           -285.4641 XXXY=            155.8305
 XXXZ=           -107.2848 YYYX=             24.8718 YYYZ=             -2.6633 ZZZX=             -0.8760
 ZZZY=             -0.1110 XXYY=           -605.7018 XXZZ=           -610.9859 YYZZ=           -141.5636
 XXYZ=            -21.7279 YYXZ=             -7.5655 ZZXY=              6.3921
 N-N= 8.698311346417D+02 E-N=-3.209268832884D+03  KE= 6.248484111319D+02
  Exact polarizability: 132.022   0.712  97.698   0.998  -0.761  81.771
 Approx polarizability: 153.583  -3.005 148.582   3.828  -1.199 112.838
 Calculating spin-rotation constants.
 Leave Link  601 at Wed Oct 19 23:06:37 2011, MaxMem=  128000000 cpu:      32.0
 (Enter /home/foresman/gdv/l701.exe)
 Compute integral second derivatives.
 ... and contract with generalized density number  0.
 Leave Link  701 at Wed Oct 19 23:06:37 2011, MaxMem=  128000000 cpu:       1.4
 (Enter /home/foresman/gdv/l702.exe)
 L702 exits ... SP integral derivatives will be done elsewhere.
 Leave Link  702 at Wed Oct 19 23:06:37 2011, MaxMem=  128000000 cpu:       0.3
 (Enter /home/foresman/gdv/l703.exe)
 Compute integral second derivatives, UseDBF=F ICtDFT=           0.
 Integral derivatives from FoFJK, PRISM(SPDF).
 Calling FoFJK, ICntrl=    100127 FMM=F ISym2X=0 I1Cent= 0 IOpClX= 0 NMat=1 NMatS=1 NMatT=0.
 FoFJK:  IHMeth= 1 ICntrl=  100127 DoSepK=F KAlg= 0 I1Cent=   0 FoldK=F
 IRaf=       0 NMat=   1 IRICut=       1 DoRegI=T DoRafI=F ISym2E= 0.
 FoFCou: FMM=F IPFlag=           0 FMFlag=      100000 FMFlg1=         800
         NFxFlg=           0 DoJE=F BraDBF=F KetDBF=F FulRan=T
         wScrn=  0.000000 ICntrl=  100127 IOpCl=  0 I1Cent=           0 NGrid=           0
         NMat0=    1 NMatS0=      1 NMatT0=    0 NMatD0=    1 NMtDS0=    0 NMtDT0=    0
 Symmetry not used in FoFCou.
 Leave Link  703 at Wed Oct 19 23:07:10 2011, MaxMem=  128000000 cpu:     266.7
 (Enter /home/foresman/gdv/l716.exe)
 Dipole        =-2.05068591D-01 4.79526147D-01 4.84242980D-01
 Polarizability= 1.32022294D+02 7.11515506D-01 9.76984449D+01
                 9.98131023D-01-7.60514311D-01 8.17712427D+01
 AAT           = 1.01648439D-02-2.72473015D-02-1.83456162D-01
                -5.25920829D-03 1.83916993D-03 3.94467242D-01
                 1.00235964D-01-3.75258174D-01-5.02338429D-03
                -3.89767268D-03-1.80965373D-03 1.56598890D-01
                 7.55290047D-03 4.53754954D-03-1.97450101D-01
                -1.04693414D-01 2.61316276D-02-6.65425109D-04
                 5.67228222D-02-1.81725755D-01-1.64340856D-01
                 1.46907410D-01-1.25142825D-01-1.95548320D-01
                 4.88198340D-02 1.93333302D-01 8.44540079D-02
                -5.10494949D-02 1.81876984D-01-1.53777363D-01
                -1.38882331D-01 1.19598301D-01-1.99829349D-01
                 4.12405071D-02 2.14297936D-01-9.15485575D-02
                -5.06125107D-03 5.20503243D-02 4.09476129D-01
                -1.15302099D-02 1.38124293D-02-2.40627074D-01
                -5.53358459D-01 4.55360754D-01 4.87603934D-03
                -4.23395546D-02-1.28422392D-01 6.29147407D-01
                 7.66846608D-02 2.30869940D-02-2.90309987D-01
                -2.17604842D-01-7.94653479D-02 3.76495124D-02
                -9.18318858D-03 4.64410815D-02-1.05251069D+00
                -7.94734051D-02-4.69102554D-02 1.47201635D-01
                 1.07949541D+00 2.20072267D-01 2.74307749D-02
                 3.72260614D-02 4.35878098D-02-2.74615089D-01
                -2.23954568D-02-6.49117254D-02 4.13633554D-01
                 3.82509834D-02-4.26711315D-01 3.63785320D-02
                -1.94599977D-02-5.99319759D-02-1.01312161D-01
                 8.60517919D-02 3.84446883D-02-3.24884084D-01
                -3.28987753D-02 2.52223662D-01-7.69443197D-02
                -1.53355495D-02 7.62774272D-02 1.78156844D-01
                 5.08540058D-03 1.14332066D-01 2.16437498D-01
                -1.22456585D-01 8.03846014D-04-4.76187362D-02
                 4.51400969D-02 2.05459238D-02-1.64278059D-01
                 3.17924910D-02 1.36400968D-01-7.74393874D-01
                 1.49967879D-02 5.76740920D-01-1.32991374D-01
                -4.01911166D-02 1.25533782D-01-5.21253434D-02
                -2.47449662D-02-1.70617072D-02-9.30169849D-02
                 7.68388477D-02 1.84980777D-01 1.11124930D-02
                 2.35398418D-02 2.46527053D-02-1.03686545D-01
                 2.86746321D-02-4.88547141D-01 9.11907168D-01
                 1.44869837D-01-1.09657298D+00 4.90840938D-01
                -1.04196999D-02 5.13533809D-02 3.46399512D-01
                -1.59844396D-01 3.60078381D-01-1.65238209D-01
                -1.69576086D-01 5.57499085D-01-3.98708346D-01
                -9.07256487D-03 1.30260518D-02 1.77761883D-01
                -8.15107492D-03 2.61609486D-04 2.24812055D-01
                 4.19950114D-02-2.77897944D-01 7.55503984D-03
                -4.77172020D-02-5.06947826D-02-7.79671141D-02
                 2.03672273D-01-1.22403684D-01-7.43257452D-02
                -2.74862110D-02 1.63260108D-01 2.17990042D-01
                 5.79320997D-02 3.27608095D-02-5.32234403D-02
                -1.95828133D-01 1.18311993D-01-7.78246807D-02
                -2.16352394D-02 1.77274586D-01-2.22825326D-01
                -2.22913452D-02-1.02732285D-01-2.56735217D-03
                -4.77360194D-02 1.28739402D-02 2.71182959D-01
                -3.73809455D-02-2.32284334D-01 1.07082393D-02
                -5.97078836D-02 6.42115403D-02-2.03414406D-02
                -6.65969766D-02 1.87104411D-01-2.61192710D-02
                 1.96595765D-01 2.18229070D-01-7.40103942D-02
                -3.91480040D-02 2.23685995D-02 2.04690180D-01
                 7.09755447D-02-6.02369450D-02-1.75500789D-01
                -2.14239392D-01-2.41152050D-02 1.19833505D-01
                 2.85910935D-02 1.33251925D-01 6.33306343D-03
                 3.33719106D-02-1.67036301D-02 2.75273682D-01
                -3.28135603D-02-2.23626500D-01-1.21695720D-02
                 3.20273811D-02-4.01160717D-02 2.12229353D-01
                -4.93217366D-02 7.19754906D-02-1.74208221D-01
                -2.02048911D-01-1.62956993D-02-1.25921268D-01
                 4.75003791D-02-8.95778673D-02-2.66458688D-02
                 6.42452925D-02-1.94422409D-01-3.03491092D-02
                 1.99995138D-01 1.99722475D-01 9.51737707D-02
                 5.41732003D-02-1.28792475D-01-4.99063426D-02
                 1.41545095D-01 1.81724262D-02 9.52036388D-02
                -5.03069552D-02-5.39959818D-02-1.51493416D-01
                -4.96337842D-02 1.49330167D-01-4.68354546D-02
                -1.52280907D-01-9.54997332D-04 5.05892583D-02
                -1.15292809D-01-7.71116849D-02 1.26938036D-01
                 3.70081053D-02 1.37634714D-01-2.00314105D-01
                -1.51958100D-01-9.39299775D-02-7.69492465D-04
                 7.74751977D-02 8.59039889D-02 7.16269287D-02
                -1.16992816D-02-2.43578735D-01-1.84587917D-02
                 1.74540665D-01-5.24598045D-02-1.47948948D-01
[...]
 6,0.07694383,0.09210558,-0.00021968,-0.00010584,-0.00001166,0.00003032
 ,0.00001014,-0.00007774,0.00001971,0.00013770,0.00000046,-0.00000664,0
 .00001891,0.00003222,-0.00152162,0.00068424,0.00012737,0.00242694,0.00
 197992,0.00130404,-0.00008799,-0.00068325,-0.00027449,0.00022247,-0.00
 518333,0.00292997,0.10943696,0.05517962,-0.12988341,-0.01516409,-0.005
 99336,0.00792128,-0.00126709,-0.00243202,-0.00111213,-0.00073905,-0.00
 009277,-0.00102572,-0.00086162,-0.00002073,0.00008764,-0.00023083,-0.0
 0005233,-0.00019078,-0.00002903,0.00005443,0.00004010,-0.00008713,-0.0
 0009871,0.00008138,0.00001273,-0.00001063,-0.00008330,-0.00002997,-0.0
 0000229,0.00005010,0.00002860,-0.00000123,0.00001494,-0.00001699,0.000
 04209,0.00003866,-0.00001274,0.00002462,-0.00000791,-0.00000049,0.0000
 5805,-0.00001295,0.00000200,-0.00002779,0.00003281,-0.11652849,-0.0572
 3362,0.13710678,-0.00013516,-0.00042527,-0.00024220,0.00000320,0.00006
 435,0.00005887,-0.00001522,0.00013157,0.00002027,-0.00002803,0.0000828
 2,0.00006459,0.00143609,0.00029358,0.00086425,-0.00166225,-0.00371656,
 -0.00302189,-0.00071189,0.00112577,0.00101468,-0.01639451,0.01582534,-
 0.01963406,-0.07307927,0.01230798,-0.06885923,-0.00343955,0.00293308,-
 0.01206002,0.00056334,0.00114453,-0.00063418,0.00011538,0.00203173,-0.
 00101386,-0.00015123,-0.00049211,0.00022545,-0.00004954,0.00008665,-0.
 00001571,0.00002470,0.00002374,0.00000800,-0.00000643,-0.00002406,0.00
 001597,0.00000990,-0.00001401,-0.00003929,0.00001289,0.00000037,0.0000
 5674,0.00003789,-0.00001597,0.00003001,0.00000252,-0.00006260,-0.00012
 074,0.00003045,0.00003851,-0.00001217,-0.00001119,-0.00009160,0.000010
 83,0.00001246,-0.00000624,-0.00000285,0.00902213,-0.00663312,0.0248196
 1,0.08519289,-0.00011586,0.00008073,-0.00021310,-0.00000965,-0.0001011
 2,0.00006615,0.00003995,-0.00010294,-0.00002107,0.00005320,0.00010656,
 0.00010549,-0.00206094,0.00076274,-0.00093910,0.00357238,0.00422811,0.
 00478512,0.00074371,-0.00156820,-0.00159557,0.01753921,-0.01388125,0.0
 1656288,0.01210415,-0.05954404,0.05397202,-0.00789681,0.00532176,-0.02
 787091,0.00075425,-0.00013215,-0.00074223,-0.00142103,-0.00257298,0.00
 075174,-0.00039768,0.00000676,0.00015516,-0.00024312,-0.00013965,0.000
 16662,-0.00002029,0.00005458,-0.00001875,-0.00000153,-0.00002641,0.000
 01568,-0.00005508,0.00000545,-0.00011400,-0.00003660,0.00002622,-0.000
 02951,-0.00000847,0.00001655,-0.00007252,-0.00001283,0.00008839,0.0001
 3369,-0.00002736,0.00003979,-0.00005243,0.00000873,0.00011209,-0.00000
 575,0.00001963,0.00000381,-0.00000261,0.00259995,-0.00181509,0.0135361
 0,-0.02302744,0.07038099,0.00005473,-0.00014343,-0.00023696,0.00001146
 ,0.00005279,-0.00004218,0.00000774,-0.00002852,-0.00000786,0.00004134,
 0.00002917,0.00000786,0.00106331,-0.00066412,0.00050955,-0.00153515,-0
 .00101674,0.00010547,0.00049199,0.00035392,-0.00032196,-0.00039937,-0.
 00040483,0.01055297,-0.06934596,0.05624246,-0.27418486,-0.00222047,0.0
 0201195,-0.01266189,0.00012799,0.00033515,-0.00025182,0.00063739,-0.00
 017272,-0.00075788,-0.00018030,-0.00021796,0.00019180,-0.00010527,0.00
 001860,0.00000934,0.00002122,-0.00003654,0.00000926,-0.00000240,0.0000
 2610,-0.00002801,0.00001694,-0.00000040,0.00009579,0.00000046,-0.00000
 693,-0.00000246,-0.00000307,-0.00000015,0.00003841,0.00000722,-0.00001
 624,-0.00003925,0.00000711,0.00002001,0.00000896,0.00001269,-0.0000513
 9,0.00000787,-0.00002360,-0.00001691,0.00000506,-0.00547041,0.00392129
 ,-0.01874074,0.07848323,-0.05775036,0.29412218,0.00001222,-0.00002718,
 -0.00002110,0.00000036,0.00000717,0.00000463,-0.00000596,0.00000258,-0
 .00000051,-0.00000269,0.00000953,0.00000284,0.00017782,0.00005051,0.00
 005863,0.00050292,0.00003171,0.00005149,0.00036973,-0.00021696,-0.0000
 5586,-0.00185339,-0.00307289,-0.00138865,0.00667113,-0.01558590,0.0054
 4411,-0.08508785,0.08769443,-0.02884819,-0.01251423,0.03219349,-0.0102
 3818,-0.00612297,-0.00014476,0.00220287,0.00162638,-0.00152692,0.00063
 418,0.00005730,-0.00020727,0.00002570,0.00000242,0.00000225,0.00000050
 ,0.00000161,-0.00000176,0.00000176,0.00000166,-0.00000112,-0.00000307,
 0.00000431,0.00000154,0.00000126,-0.00000065,-0.00000092,-0.00000021,0
 .00000161,-0.00000591,-0.00000044,0.00000412,0.00000217,0.00000029,0.0
 0000340,-0.00000360,-0.00000239,-0.00000054,0.00000034,-0.00000086,-0.
 00058092,-0.00020152,0.00015771,0.00097937,0.00078112,0.00022524,0.092
 92406,0.00016481,0.00028234,0.00016190,-0.00000482,-0.00004551,-0.0000
 1102,-0.00001089,-0.00007108,-0.00002869,-0.00001463,-0.00006768,-0.00
 002815,-0.00051433,-0.00032683,-0.00032119,0.00119717,0.00104719,0.000
 66840,0.00016213,-0.00087936,-0.00029480,-0.00174514,-0.00324950,-0.00
 181234,0.01058802,-0.01799577,0.00807408,0.08916235,-0.26100909,0.0687
 0078,-0.00184466,-0.00084683,0.00027864,-0.00073583,0.00015596,-0.0009
 6609,0.00056736,0.00073082,0.00023447,0.00016036,-0.00004611,0.0000671
 3,-0.00002075,-0.00000591,-0.00001001,0.00001198,0.00000281,0.00001004
 ,0.00000899,0.00000822,-0.00000706,-0.00000508,-0.00001635,-0.00002731
 ,-0.00000392,0.00001233,-0.00000035,-0.00000804,0.00003718,0.00006125,
 -0.00001405,-0.00003020,-0.00000031,0.00000599,0.00007121,-0.00001629,
 0.00000176,0.00001438,0.00000063,-0.00059436,-0.00076509,-0.00030520,0
 .00016744,0.00135783,-0.00055520,-0.09773632,0.28305035,0.00002708,0.0
 0006196,0.00003185,0.00000127,-0.00001763,0.00000297,0.00000430,-0.000
 02394,-0.00000413,0.00000185,-0.00001482,-0.00000670,-0.00015098,0.000
 00039,-0.00009520,0.00093167,-0.00005632,0.00033446,0.00001217,-0.0005
 3472,-0.00028078,-0.00008205,-0.00386069,-0.00084819,0.00654430,-0.012
 59631,0.00282160,-0.03055462,0.07136706,-0.07264129,0.00455245,-0.0088
 5865,0.00126786,0.00139557,-0.00131958,-0.00060922,-0.00050952,-0.0001
 3924,0.00012161,-0.00003948,-0.00008147,-0.00001954,-0.00000572,0.0000
 0208,-0.00000257,0.00000027,0.00000177,-0.00000084,-0.00000256,0.00000
 126,-0.00000382,-0.00000272,0.00000011,-0.00000778,-0.00000554,0.00000
 300,-0.00000579,-0.00000251,0.00001066,0.00002397,-0.00000368,-0.00000
 448,0.00000221,0.00000521,0.00001839,-0.00000920,-0.00000538,0.0000011
 1,-0.00000084,-0.00028552,-0.00005707,0.00002305,0.00044255,0.00022515
 ,0.00065452,0.03121376,-0.07390224,0.07672909,0.00005785,0.00006146,0.
 00005419,0.00000205,-0.00000051,-0.00002077,-0.00000718,-0.00001145,-0
 .00000948,-0.00000142,-0.00002709,-0.00002148,-0.00002618,-0.00016342,
 0.00006941,-0.00000994,0.00016179,-0.00007364,0.00006377,-0.00010440,-
 0.00002286,-0.00020448,0.00034553,0.00006453,-0.00188588,0.00027606,-0
 .02095394,-0.04760485,0.00224093,0.01169015,-0.00798376,-0.00373173,0.
 04009878,0.00133718,-0.00158935,0.00014286,0.00385917,0.00106672,-0.00
 045869,0.00102218,0.00015811,-0.00059615,-0.00000385,-0.00000804,0.000
 00147,0.00000029,0.00000222,0.00000255,0.00000965,0.00000287,0.0000144
 5,0.00000011,-0.00000780,-0.00000520,-0.00000136,0.00000242,0.00001119
 ,-0.00000079,0.00000465,0.00000871,-0.00000209,-0.00000967,0.00000656,
 0.00000327,0.00000954,-0.00000097,-0.00000427,0.00000015,0.00000416,0.
 00048795,0.00081124,-0.00003670,-0.00062476,-0.00334707,-0.00136949,0.
 00083845,0.00073844,-0.01320376,0.05720968,0.00002920,0.00001032,0.000
 00111,0.00000308,0.00000513,-0.00001026,-0.00000466,-0.00000237,-0.000
 00088,0.00000133,-0.00001249,-0.00001600,0.00018074,-0.00014747,0.0001
 1760,-0.00028378,-0.00034750,-0.00004946,0.00009246,0.00002091,-0.0000
 0469,-0.00070468,0.00034690,0.00062052,0.00053300,0.00133246,-0.028193
 52,0.00242009,-0.05556325,0.02548606,-0.00017453,-0.00041417,-0.002142
 14,-0.00017396,0.00055528,-0.00112477,-0.00060110,-0.00035914,0.000570
 23,0.00012134,-0.00026777,-0.00033560,0.00000067,-0.00000681,0.0000026
 5,-0.00000284,0.00000449,-0.00000214,0.00000895,-0.00000038,0.00001739
 ,0.00000140,-0.00000431,-0.00000063,-0.00000017,-0.00000087,0.00001360
 ,0.00000004,-0.00000138,-0.00000479,0.00000272,-0.00000207,0.00001119,
 0.00000478,-0.00001147,-0.00000508,-0.00001335,-0.00000418,0.00000315,
 0.00043208,0.00151949,0.00038290,-0.00125953,-0.00314587,-0.00194126,-
 0.00269312,-0.00194531,0.03118513,0.00174997,0.05809600,0.00005248,0.0
 0008072,0.00002113,-0.00000072,-0.00000463,-0.00001336,-0.00000807,-0.
 00001450,-0.00001050,-0.00000039,-0.00002148,-0.00001315,0.00002407,-0
 .00017858,0.00003585,0.00004244,0.00007512,-0.00009297,0.00008630,-0.0
 0016550,-0.00001229,0.00003812,-0.00051039,0.00058905,-0.00026565,0.00
 187687,-0.01295517,0.01307653,0.02442285,-0.31055340,0.00261036,0.0019
 8298,-0.01355018,-0.00058936,0.00018399,-0.00026562,-0.00121085,-0.000
 33691,0.00111971,-0.00060444,-0.00000573,0.00055407,-0.00000375,-0.000
 00917,-0.00000151,0.00000123,0.00000586,0.00000114,0.00001028,0.000000
 94,0.00001485,-0.00000202,-0.00001015,-0.00000595,0.00000319,0.0000007
 9,0.00001528,-0.00000216,0.00000936,0.00000630,-0.00000165,-0.00000819
 ,0.00000583,0.00000608,0.00000895,-0.00000691,-0.00000967,0.00000078,0
 .00000405,-0.00020654,0.00000471,0.00133666,-0.00036536,-0.00185901,0.
 00055406,0.00084174,0.00048957,-0.00837660,-0.01550654,-0.02446759,0.3
 4019980,-0.00000093,-0.00005131,0.00000472,-0.00000017,0.00000807,0.00
 001007,0.00000626,0.00000518,0.00000752,-0.00000198,-0.00000101,0.0000
 0304,0.00012573,0.00006932,0.00007966,0.00022233,-0.00024200,-0.000191
 49,-0.00005743,-0.00005268,0.00002491,0.00027400,0.00076788,-0.0003386
 9,0.00084707,0.00069506,0.00052975,-0.00721359,-0.00943534,0.03319449,
 -0.05935631,-0.01359943,0.03872247,0.00274756,0.00556372,-0.00663389,-
 0.00070092,0.00054971,-0.02695131,0.00208034,0.00095540,-0.00051256,0.
 00000472,-0.00000076,-0.00000096,0.00000212,0.00000242,-0.00000334,-0.
 00000219,0.00000030,0.00000080,-0.00000071,0.00000278,0.00000200,-0.00
 000036,-0.00000093,-0.00000354,0.00000252,-0.00000110,-0.00000417,0.00
 000016,0.00000047,-0.00000075,-0.00000155,-0.00000089,-0.00000209,0.00
 000082,0.00000138,-0.00000219,-0.00003250,0.00019040,-0.00026948,-0.00
 013128,-0.00022641,-0.00045423,0.00177394,0.00021906,-0.00067462,-0.00
 633475,-0.00017540,0.00151276,0.06550030,0.00001345,0.00012074,0.00010
 369,-0.00000157,-0.00003036,-0.00001573,0.00000149,-0.00002791,-0.0000
 1065,-0.00000021,-0.00002522,-0.00001873,-0.00031533,-0.00020842,-0.00
 022889,0.00015506,0.00006803,0.00026007,-0.00017563,-0.00004644,-0.000
 20279,0.00140774,0.00147985,-0.00145670,0.00023479,-0.00017199,0.00028
 264,0.00317207,0.00253500,-0.00515681,-0.01517507,-0.08031227,0.078879
 28,-0.00320132,-0.01521238,0.03410304,-0.00158860,0.00427844,-0.025912
 22,0.00128497,0.00057859,0.00090955,-0.00001279,-0.00000277,-0.0000046
 3,0.00000904,0.00000177,0.00000016,-0.00000315,0.00000648,-0.00000255,
 0.00000077,0.00000016,-0.00001351,-0.00001553,0.00000811,-0.00001389,-
 0.00000168,0.00000365,0.00003368,-0.00000797,-0.00001377,-0.00000394,-
 0.00000072,0.00002715,0.00000780,0.00001186,0.00000811,-0.00000478,-0.
 00009388,0.00010263,0.00002365,-0.00029702,0.00011488,-0.00000125,-0.0
 0071320,0.00052372,-0.00065395,0.00068473,0.00046574,-0.00084940,0.014
 35871,0.09013150,-0.00003265,-0.00012571,-0.00007974,0.00000234,0.0000
 3062,0.00000859,0.00000004,0.00003780,0.00000975,0.00000470,0.00002022
 ,0.00001809,0.00023866,0.00024376,0.00027659,0.00032323,-0.00021475,-0
 .00057336,-0.00010274,0.00012986,0.00014472,0.00080156,0.00134895,0.00
 090142,0.00040713,0.00041961,-0.00054001,0.00202979,0.00337152,-0.0074
 6784,0.03620574,0.07867992,-0.25973155,0.00173550,-0.00047590,-0.00140
 451,-0.00509780,-0.00302831,-0.02530263,-0.00000822,0.00009812,0.00112
 119,0.00001132,0.00000319,0.00000470,-0.00001098,-0.00000396,0.0000029
 6,0.00000309,-0.00000680,0.00000090,-0.00000362,-0.00000048,0.00001546
 ,0.00001560,-0.00000832,0.00001344,-0.00000024,-0.00000151,-0.00002625
 ,0.00000462,0.00001307,0.00000061,0.00000041,-0.00001715,-0.00000484,-
 0.00000895,-0.00000750,0.00000673,0.00015175,0.00013238,0.00030675,0.0
 0043009,0.00024109,0.00033396,-0.00006443,-0.00058254,0.00052963,0.000
 84213,-0.00034955,0.00071177,-0.03705457,-0.07977037,0.28897056,0.0002
 3848,0.00060146,0.00069247,-0.00000574,-0.00011901,-0.00005811,-0.0000
 1739,-0.00009907,-0.00002602,-0.00004908,-0.00022060,-0.00012188,-0.00
 185219,-0.00141270,-0.00032648,-0.00073416,0.00725396,0.00082931,0.001
 93438,-0.00191486,-0.00060251,-0.01771282,-0.00133762,-0.03295495,0.00
 045548,-0.00121077,-0.00216911,0.00061533,-0.00030276,-0.00063829,-0.0
 0059174,0.00163451,-0.00330356,-0.05524267,0.01485843,-0.03352340,-0.0
 0037572,-0.00074818,0.00049922,0.00001582,-0.00036087,0.00037395,-0.00
 005274,-0.00001714,-0.00002546,0.00001830,0.00001157,0.00000830,0.0000
 2140,0.00001834,0.00001659,-0.00000908,-0.00003100,-0.00005066,-0.0000
 1584,0.00002388,0.00001446,0.00000046,0.00007179,0.00011523,-0.0000293
 3,-0.00008741,0.00004024,0.00001987,0.00012663,-0.00004221,-0.00002895
 ,0.00002246,0.00000471,-0.00011221,-0.00009462,-0.00008023,-0.00090525
 ,0.00067706,-0.00001051,0.00001907,0.00000821,0.00028366,-0.00012122,0
 .00049640,0.00036395,0.00008076,-0.00004561,-0.00027239,0.06875927,0.0
 0000701,0.00022680,0.00033470,-0.00000720,-0.00006669,-0.00002179,-0.0
 0001172,-0.00001207,0.00001510,-0.00003893,-0.00009364,-0.00004706,-0.
 00085439,-0.00087206,-0.00004463,-0.00135474,0.00361585,-0.00023976,0.
 00132400,-0.00016118,0.00071496,-0.00770924,0.00303281,-0.01725092,0.0
 0056242,-0.00097827,-0.00069897,-0.00156205,0.00110196,0.00016392,0.00
 577653,-0.01463583,0.03679886,0.01435375,-0.06537992,0.06150908,-0.000
 00058,0.00627648,-0.00121689,-0.00025158,-0.00064438,0.00017486,-0.000
 02429,-0.00000417,-0.00001323,0.00000664,0.00000572,0.00000104,0.00001
 292,0.00000502,0.00000985,0.00000144,-0.00001304,-0.00000969,0.0000039
 9,0.00000305,0.00001641,0.00001470,0.00000920,-0.00000493,0.00000227,-
 0.00003555,0.00002642,-0.00000047,0.00000251,-0.00002541,-0.00001740,0
 .00000735,0.00000152,-0.00003310,-0.00004217,-0.00003948,-0.00022862,0
 .00037017,-0.00002643,-0.00001538,0.00002400,-0.00034572,0.00079449,-0
 .00006772,-0.00056965,0.00114635,-0.00619667,-0.00046510,-0.01062689,0
 .07048979,0.00019015,0.00042119,0.00021259,-0.00000724,-0.00006376,-0.
 00002020,-0.00002669,-0.00007971,-0.00002301,-0.00003097,-0.00010125,-
 0.00004526,-0.00076802,-0.00062151,-0.00054071,-0.00027161,0.00394090,
 0.00046210,0.00102545,-0.00097259,0.00030862,-0.01013699,-0.00485028,-
 0.00157799,0.00065062,-0.00026884,-0.00156196,-0.00026375,-0.00032415,
 0.00021108,-0.00005236,0.00112089,-0.00535218,-0.03413582,0.06105412,-
 0.28148679,0.00115772,-0.00120044,0.00201959,-0.00003194,0.00060928,-0
 .00031697,-0.00002795,-0.00001349,-0.00001245,0.00000489,0.00001268,0.
 00000770,0.00002266,0.00000389,0.00001810,-0.00001271,-0.00002988,-0.0
 0003546,0.00000960,0.00000801,0.00003019,-0.00000251,0.00006701,0.0000
 5366,-0.00000616,-0.00003977,0.00002351,0.00001967,0.00006692,-0.00004
 282,-0.00002862,0.00001142,0.00000795,-0.00024499,0.00013183,-0.000019
 12,-0.00035940,0.00041264,0.00006473,-0.00010481,0.00006226,0.00015613
 ,-0.00035778,0.00006420,0.00039270,-0.00061144,0.00022316,0.00097631,0
 .04689475,-0.06652958,0.30507165,0.00004693,0.00012848,-0.00008125,-0.
 00000755,-0.00002259,-0.00000990,-0.00002828,-0.00006073,-0.00002380,-
 0.00001527,0.00002218,-0.00002069,-0.00006205,-0.00060900,-0.00045930,
 -0.00395545,0.00651284,0.00260217,0.00436665,-0.00079662,-0.00066645,-
 0.03050225,0.00702245,0.01023614,-0.00193479,-0.00285441,0.00189934,-0
 .00056848,-0.00096479,-0.00060800,0.00140381,-0.00117140,-0.00122614,-
 0.18189690,0.06512952,0.11285817,0.00038504,0.00089560,0.00044047,-0.0
 0012513,0.00017971,0.00018629,-0.00000847,-0.00001101,-0.00000685,0.00
 002243,0.00001393,-0.00000750,0.00000238,0.00000297,0.00001223,0.00002
 612,0.00000105,-0.00003311,-0.00001941,0.00000655,-0.00000577,0.000007
 98,-0.00002869,-0.00000755,0.00000849,-0.00001709,0.00000751,0.0000207
 5,-0.00002406,0.00002465,0.00001088,0.00001469,-0.00001111,-0.00103971
 ,0.00097730,0.00003282,-0.00009766,0.00001483,-0.00008982,0.00019728,0
 .00008874,0.00011256,-0.00007485,0.00000887,0.00010766,0.00016605,0.00
 031460,-0.00055112,0.00567751,-0.00126994,-0.00249375,0.20799395,-0.00
 003150,-0.00010099,-0.00020848,-0.00000044,0.00002244,0.00001526,-0.00
 004783,-0.00000915,-0.00002045,-0.00001773,0.00009083,0.00001246,0.000
 49291,-0.00007319,-0.00048044,-0.00351541,0.00422231,0.00168344,0.0026
 7399,-0.00173468,-0.00074386,-0.01386392,0.00233887,0.00647770,-0.0010
 9253,-0.00233317,-0.00021725,0.00107959,-0.00516203,0.00120859,0.02569
 374,-0.00701600,-0.01942810,0.07080584,-0.08013933,-0.05658913,-0.0012
 8583,-0.00055818,0.00039598,-0.00056825,-0.00022277,-0.00026533,0.0000
 1015,0.00000578,0.00000596,-0.00000285,-0.00000152,0.00000098,0.000002
 71,-0.00000810,0.00000065,0.00000923,-0.00000150,-0.00000711,0.0000156
 1,-0.00000662,0.00001077,-0.00000891,-0.00001422,-0.00004588,0.0000346
 6,0.00001495,0.00000358,0.00001192,-0.00009695,0.00003330,0.00001389,-
 0.00000412,-0.00000297,-0.00028432,0.00040547,0.00015020,0.00003666,-0
 .00004773,0.00003993,0.00137791,-0.00001769,-0.00041125,-0.00011078,-0
 .00005218,-0.00013259,-0.00074892,0.00179365,0.00028784,-0.00717561,0.
 00403266,0.00688488,-0.07350397,0.08467315,0.00003683,0.00001356,-0.00
 004851,0.00000266,0.00000780,-0.00000098,-0.00000627,-0.00002427,-0.00
 002132,0.00000730,0.00002927,-0.00000646,-0.00023032,0.00025254,-0.000
 34193,0.00004366,-0.00037759,0.00161994,-0.00067942,-0.00002975,-0.001
 40424,-0.01090215,0.00429852,0.00887806,-0.00185507,-0.00006167,-0.000
 51935,-0.00116398,0.00052270,0.00039466,-0.00421851,0.00318120,0.00118
 181,0.11899290,-0.05565317,-0.15239785,-0.00050321,-0.00092890,0.00010
 963,0.00003458,-0.00043788,-0.00001119,0.00000273,-0.00000211,0.000001
 53,0.00000237,0.00000213,-0.00000221,-0.00000283,-0.00000022,0.0000027
 9,0.00000715,0.00000367,-0.00001074,-0.00001454,0.00000414,-0.00000791
 ,-0.00001106,-0.00001524,0.00001053,0.00000879,0.00000256,0.00000208,0
 .00000807,-0.00004262,0.00000838,-0.00000107,-0.00000035,-0.00000459,-
 0.00035091,0.00024805,0.00000576,-0.00016418,0.00015740,0.00000411,-0.
 00013798,0.00005963,0.00021352,-0.00037368,0.00017263,0.00029536,-0.00
 038288,-0.00050592,0.00077662,0.02406892,-0.01221747,-0.01898166,-0.12
 221789,0.06134134,0.16025418\\0.00000197,-0.00000212,0.00000053,-0.000
 00077,-0.00000167,0.00000068,0.00000031,-0.00000057,0.00000095,0.00000
 176,-0.00000025,0.00000017,-0.00000007,-0.00000056,0.00000026,0.000000
 78,-0.00000071,-0.00000063,0.00000021,0.00000127,-0.00000027,0.0000005
 2,0.00000084,0.00000106,-0.00000050,0.00000011,0.00000032,-0.00000159,
 0.00000050,-0.00000078,-0.00000117,0.00000052,-0.00000070,-0.00000109,
 0.00000206,-0.00000174,-0.00000143,0.00000162,-0.00000091,-0.00000084,
 0.00000243,-0.00000189,0.00000109,-0.00000197,0.00000140,0.00000097,-0
 .00000181,0.00000127,-0.00000006,-0.00000182,0.00000103,0.00000061,-0.
 00000054,0.00000074,-0.00000017,-0.00000037,0.00000005,0.00000041,0.00
 000015,0.00000014,0.00000188,-0.00000047,0.00000114,0.00000169,0.00000
 015,0.00000061,0.00000177,-0.00000057,0.00000138,-0.00000052,-0.000000
 59,-0.00000025,-0.00000140,-0.00000018,-0.00000028,-0.00000182,0.00000
 028,-0.00000056,-0.00000096,0.00000049,-0.00000054,-0.00000186,0.00000
 105,-0.00000154,0.00000035,0.00000139,-0.00000066,-0.00000007,0.000001
 34,-0.00000099\\\@
 The archive entry for this job was punched.


 THE SCIENTIFIC THEORIST IS NOT TO BE ENVIED. FOR NATURE, OR MORE
 PRECISELY EXPERIMENT, IS AN INEXORABLE AND NOT VERY FRIENDLY JUDGE OF HIS
 WORK.  IT NEVER SAYS "YES" TO A THEORY. IN THE MOST FAVORABLE CASES
 IT SAYS "MAYBE", AND IN THE GREAT MAJORITY OF CASES SIMPLY "NO"...
 PROBABLY EVERY THEORY WILL SOME DAY EXPERIENCE ITS "NO" - MOST
 THEORIES, SOON AFTER CONCEPTION.  -- A.EINSTEIN, NOV 11, 1922.
 Job cpu time:  0 days  0 hours 16 minutes  5.4 seconds.
 File lengths (MBytes):  RWF=    113 Int=      0 D2E=      0 Chk=      3 Scr=      1
 Normal termination of Gaussian DV at Wed Oct 19 23:07:10 2011.
