 Entering Gaussian System, Link 0=gdv
 Input=tuc.gjf
 Output=tuc.log
 Initial command:
 /home/foresman/gdv/l1.exe /tmp/Gau-25683.inp -scrdir=/tmp/
 Default is to use a total of   8 processors:
                                8 via shared-memory
                                1 via Linda
 Entering Link 1 = /home/foresman/gdv/l1.exe PID=     25684.
  
 Copyright (c) 1988,1990,1992,1993,1995,1998,2003,2009,2011,
            Gaussian, Inc.  All Rights Reserved.
  
 This is the private, development version of
 the Gaussian(R) DV system of programs. It is based on
 the Gaussian(R) 09 system (copyright 2009, Gaussian, Inc.),
 the Gaussian(R) 03 system (copyright 2003, Gaussian, Inc.),
 the Gaussian(R) 98 system (copyright 1998, Gaussian, Inc.),
 the Gaussian(R) 94 system (copyright 1995, Gaussian, Inc.),
 the Gaussian 92(TM) system (copyright 1992, Gaussian, Inc.),
 the Gaussian 90(TM) system (copyright 1990, Gaussian, Inc.),
 the Gaussian 88(TM) system (copyright 1988, Gaussian, Inc.),
 the Gaussian 86(TM) system (copyright 1986, Carnegie Mellon
 University), and the Gaussian 82(TM) system (copyright 1983,
 Carnegie Mellon University). Gaussian is a federally registered
 trademark of Gaussian, Inc.
  
 This software contains proprietary and confidential information,
 including trade secrets, belonging to Gaussian, Inc.
  
 This software is provided under written license and may be
 used, copied, transmitted, or stored only in accord with that
 written license.
  
 The following legend is applicable only to US Government
 contracts under FAR:
  
                    RESTRICTED RIGHTS LEGEND
  
 Use, reproduction and disclosure by the US Government is
 subject to restrictions as set forth in subparagraphs (a)
 and (c) of the Commercial Computer Software - Restricted
 Rights clause in FAR 52.227-19.
  
 Gaussian, Inc.
 340 Quinnipiac St., Bldg. 40, Wallingford CT 06492
  
  
 ---------------------------------------------------------------
 Warning -- This program may not be used in any manner that
 competes with the business of Gaussian, Inc. or will provide
 assistance to any competitor of Gaussian, Inc.  The licensee
 of this program is prohibited from giving any competitor of
 Gaussian, Inc. access to this program.  By using this program,
 the user acknowledges that Gaussian, Inc. is engaged in the
 business of creating and licensing software in the field of
 computational chemistry and represents and warrants to the
 licensee that it is not a competitor of Gaussian, Inc. and that
 it will not use this program in any manner prohibited above.
 ---------------------------------------------------------------
  

 Cite this work as:
 Gaussian Development Version, Revision H.13,
 M. J. Frisch, G. W. Trucks, H. B. Schlegel, G. E. Scuseria, 
 M. A. Robb, J. R. Cheeseman, G. Scalmani, V. Barone, B. Mennucci, 
 G. A. Petersson, H. Nakatsuji, M. Caricato, X. Li, H. P. Hratchian, 
 A. F. Izmaylov, J. Bloino, G. Zheng, J. L. Sonnenberg, W. Liang, 
 M. Hada, M. Ehara, K. Toyota, R. Fukuda, J. Hasegawa, M. Ishida, 
 T. Nakajima, Y. Honda, O. Kitao, H. Nakai, T. Vreven, 
 J. A. Montgomery, Jr., J. E. Peralta, F. Ogliaro, M. Bearpark, 
 J. J. Heyd, E. Brothers, K. N. Kudin, V. N. Staroverov, T. Keith, 
 R. Kobayashi, J. Normand, K. Raghavachari, A. Rendell, J. C. Burant, 
 S. S. Iyengar, J. Tomasi, M. Cossi, N. Rega, J. M. Millam, M. Klene, 
 J. E. Knox, J. B. Cross, V. Bakken, C. Adamo, J. Jaramillo, 
 R. Gomperts, R. E. Stratmann, O. Yazyev, A. J. Austin, R. Cammi, 
 C. Pomelli, J. W. Ochterski, R. L. Martin, K. Morokuma, 
 V. G. Zakrzewski, G. A. Voth, P. Salvador, J. J. Dannenberg, 
 S. Dapprich, P. V. Parandekar, N. J. Mayhall, A. D. Daniels, 
 O. Farkas, J. B. Foresman, J. V. Ortiz, J. Cioslowski, 
 and D. J. Fox, Gaussian, Inc., Wallingford CT, 2010.
 
 ******************************************
 Gaussian DV:  EM64L-GDVRevH.13 30-Sep-2011
                19-Oct-2011 
 ******************************************
 %chk=tuc
 %nprocshared=8
 Will use up to    8 processors via shared memory.
 Default route:  maxdisk=400GB
 ------------------------------------
 #p B3LYP/3-21G freq=vcd Geom=Connect
 ------------------------------------
 1/10=4,30=1,38=1,57=2/1,3;
 2/12=2,17=6,18=5,40=1/2;
 3/5=5,11=2,16=1,25=1,30=1,36=2,71=2,74=-5,140=1/1,2,3;
 4//1;
 5/5=2,38=5,98=1/2;
 8/6=4,10=90,11=11/1;
 10/15=4,46=1/2;
 11/6=1,8=1,9=11,15=111,16=1/1,2,10;
 10/6=1,46=1/2;
 6/7=2,8=2,9=2,10=2,18=1,28=1/1;
 7/8=1,10=1,25=1/1,2,3,16;
 1/10=4,30=1/3;
 99//99;
 Leave Link    1 at Wed Oct 19 23:07:10 2011, MaxMem=          0 cpu:       0.3
 (Enter /home/foresman/gdv/l101.exe)
 ----------------
 24 -19.944 0.000
 ----------------
 Charge =  0 Multiplicity = 1
 Symbolic Z-Matrix:
 C                    -1.01934  -2.11857  -0.87054 
 C                    -2.52898  -1.89534  -1.02249 
 C                    -0.33156  -2.28188  -2.23512 
 C                    -0.71286  -3.29409   0.07067 
 O                    -0.57195  -0.83545  -0.23312 
 C                     0.77321  -0.66885   0.06857 
 O                     1.6771   -1.48966  -0.15329 
 N                     0.95479   0.54792   0.64326 
 C                    -0.11955   1.54938   0.85992 
 C                     0.63011   2.6892    1.58859 
 C                     2.09107   2.55982   1.08202 
 C                     2.29693   1.03497   1.00858 
 O                     3.08978   3.08553   1.9939 
 H                     3.0252    4.07766   1.97908 
 H                    -2.99107  -2.77393  -1.48366 
 H                    -2.97941  -1.72427  -0.0402 
 H                    -2.71302  -1.01871  -1.65074 
 H                    -0.70569  -3.18456  -2.72932 
 H                    -0.55193  -1.41476  -2.86676 
 H                     0.74633  -2.35779  -2.0868 
 H                    -1.09501  -4.22317  -0.36501 
 H                     0.36582  -3.36726   0.21456 
 H                    -1.19901  -3.12981   1.03809 
 H                    -0.93161   1.1256    1.45425 
 H                    -0.53016   1.87903  -0.10067 
 H                     0.18995   3.67092   1.39319 
 H                     0.65348   2.50621   2.66749 
 H                     2.17237   2.99161   0.07406 
 H                     2.60853   0.68913   2.00092 
 H                     3.03268   0.72142   0.26648 
 
 NAtoms=     30 NQM=        0 NQMF=       0 NMMI=     30 NMMIF=      0
                NMic=       0 NMicF=      0.
                    Isotopes and Nuclear Properties:
 (Nuclear quadrupole moments (NQMom) in fm**2, nuclear magnetic moments (NMagM)
  in nuclear magnetons)

  Atom         1           2           3           4           5           6           7           8           9          10
 IAtWgt=          12          12          12          12          16          12          16          14          12          12
 AtmWgt=  12.0000000  12.0000000  12.0000000  12.0000000  15.9949146  12.0000000  15.9949146  14.0030740  12.0000000  12.0000000
 NucSpn=           0           0           0           0           0           0           0           2           0           0
 AtZEff=   0.0000000   0.0000000   0.0000000   0.0000000   0.0000000   0.0000000   0.0000000   0.0000000   0.0000000   0.0000000
 NQMom=    0.0000000   0.0000000   0.0000000   0.0000000   0.0000000   0.0000000   0.0000000   2.0440000   0.0000000   0.0000000
 NMagM=    0.0000000   0.0000000   0.0000000   0.0000000   0.0000000   0.0000000   0.0000000   0.4037610   0.0000000   0.0000000
 AtZNuc=   6.0000000   6.0000000   6.0000000   6.0000000   8.0000000   6.0000000   8.0000000   7.0000000   6.0000000   6.0000000

  Atom        11          12          13          14          15          16          17          18          19          20
 IAtWgt=          12          12          16           1           1           1           1           1           1           1
 AtmWgt=  12.0000000  12.0000000  15.9949146   1.0078250   1.0078250   1.0078250   1.0078250   1.0078250   1.0078250   1.0078250
 NucSpn=           0           0           0           1           1           1           1           1           1           1
 AtZEff=   0.0000000   0.0000000   0.0000000   0.0000000   0.0000000   0.0000000   0.0000000   0.0000000   0.0000000   0.0000000
 NQMom=    0.0000000   0.0000000   0.0000000   0.0000000   0.0000000   0.0000000   0.0000000   0.0000000   0.0000000   0.0000000
 NMagM=    0.0000000   0.0000000   0.0000000   2.7928460   2.7928460   2.7928460   2.7928460   2.7928460   2.7928460   2.7928460
 AtZNuc=   6.0000000   6.0000000   8.0000000   1.0000000   1.0000000   1.0000000   1.0000000   1.0000000   1.0000000   1.0000000

  Atom        21          22          23          24          25          26          27          28          29          30
 IAtWgt=           1           1           1           1           1           1           1           1           1           1
 AtmWgt=   1.0078250   1.0078250   1.0078250   1.0078250   1.0078250   1.0078250   1.0078250   1.0078250   1.0078250   1.0078250
 NucSpn=           1           1           1           1           1           1           1           1           1           1
 AtZEff=   0.0000000   0.0000000   0.0000000   0.0000000   0.0000000   0.0000000   0.0000000   0.0000000   0.0000000   0.0000000
 NQMom=    0.0000000   0.0000000   0.0000000   0.0000000   0.0000000   0.0000000   0.0000000   0.0000000   0.0000000   0.0000000
 NMagM=    2.7928460   2.7928460   2.7928460   2.7928460   2.7928460   2.7928460   2.7928460   2.7928460   2.7928460   2.7928460
 AtZNuc=   1.0000000   1.0000000   1.0000000   1.0000000   1.0000000   1.0000000   1.0000000   1.0000000   1.0000000   1.0000000
 Leave Link  101 at Wed Oct 19 23:07:11 2011, MaxMem=  128000000 cpu:       0.9
 (Enter /home/foresman/gdv/l103.exe)

 GradGradGradGradGradGradGradGradGradGradGradGradGradGradGradGradGradGrad
 Berny optimization.
 Initialization pass.
 Trust Radius=3.00D-01 FncErr=1.00D-07 GrdErr=1.00D-07
 Number of steps in this run=      2 maximum allowed number of steps=      2.
 GradGradGradGradGradGradGradGradGradGradGradGradGradGradGradGradGradGrad

 Leave Link  103 at Wed Oct 19 23:07:11 2011, MaxMem=  128000000 cpu:       0.2
 (Enter /home/foresman/gdv/l202.exe)
                          Input orientation:                          
 ---------------------------------------------------------------------
 Center     Atomic      Atomic             Coordinates (Angstroms)
 Number     Number       Type             X           Y           Z
 ---------------------------------------------------------------------
      1          6           0       -1.019343   -2.118570   -0.870543
      2          6           0       -2.528982   -1.895338   -1.022495
      3          6           0       -0.331558   -2.281880   -2.235120
      4          6           0       -0.712863   -3.294092    0.070671
      5          8           0       -0.571948   -0.835452   -0.233123
      6          6           0        0.773205   -0.668852    0.068574
      7          8           0        1.677098   -1.489665   -0.153288
      8          7           0        0.954785    0.547924    0.643259
      9          6           0       -0.119546    1.549384    0.859924
     10          6           0        0.630112    2.689202    1.588590
     11          6           0        2.091075    2.559818    1.082020
     12          6           0        2.296932    1.034974    1.008579
     13          8           0        3.089783    3.085531    1.993896
     14          1           0        3.025197    4.077664    1.979083
     15          1           0       -2.991065   -2.773932   -1.483660
     16          1           0       -2.979408   -1.724269   -0.040205
     17          1           0       -2.713025   -1.018710   -1.650740
     18          1           0       -0.705686   -3.184555   -2.729324
     19          1           0       -0.551931   -1.414756   -2.866755
     20          1           0        0.746329   -2.357793   -2.086802
     21          1           0       -1.095014   -4.223172   -0.365011
     22          1           0        0.365824   -3.367257    0.214562
     23          1           0       -1.199006   -3.129810    1.038092
     24          1           0       -0.931611    1.125598    1.454247
     25          1           0       -0.530164    1.879027   -0.100674
     26          1           0        0.189951    3.670920    1.393192
     27          1           0        0.653477    2.506209    2.667493
     28          1           0        2.172375    2.991611    0.074060
     29          1           0        2.608528    0.689125    2.000921
     30          1           0        3.032677    0.721415    0.266478
 ---------------------------------------------------------------------
                    Distance matrix (angstroms):
                    1          2          3          4          5
     1  C    0.000000
     2  C    1.533602   0.000000
     3  C    1.536811   2.539399   0.000000
     4  C    1.536771   2.539648   2.546888   0.000000
     5  O    1.500953   2.361451   2.481517   2.481343   0.000000
     6  C    2.489348   3.687701   3.021483   3.016669   1.388601
     7  O    2.860204   4.314070   2.999387   3.003003   2.343624
     8  N    3.646775   4.569562   4.236452   4.227291   2.238903
     9  C    4.154279   4.605973   4.929789   4.943096   2.662116
    10  C    5.646478   6.149443   6.344858   6.317236   4.145693
    11  C    5.947648   6.754430   6.349378   6.569107   4.511003
    12  C    4.947081   6.000120   5.332172   5.355310   3.642909
    13  O    7.223060   8.091860   7.641940   7.671930   5.808786
    14  H    7.929186   8.691095   8.334932   8.482801   6.478581
    15  H    2.166357   1.094587   2.807096   2.806549   3.342705
    16  H    2.164899   1.094094   3.484206   2.759323   2.573534
    17  H    2.164939   1.094094   2.758348   3.484432   2.574380
    18  H    2.165589   2.810651   1.095004   2.802147   3.430334
    19  H    2.167647   2.746086   1.095186   3.490885   2.696667
    20  H    2.157339   3.474806   1.090688   2.767777   2.737061
    21  H    2.165788   2.812003   2.801569   1.095010   3.430399
    22  H    2.157628   3.475163   2.768632   1.090699   2.736764
    23  H    2.167434   2.745682   3.490754   1.095092   2.696900
    24  H    3.992114   4.220415   5.057904   4.636356   2.611952
    25  H    4.100339   4.369309   4.680646   5.179180   2.718030
    26  H    6.332857   6.649163   6.990882   7.146714   4.851059
    27  H    6.058432   6.566405   6.923272   6.500297   4.591507
    28  H    6.098630   6.869313   6.277873   6.916261   4.719330
    29  H    5.412015   6.497269   5.951052   5.533853   4.175011
    30  H    5.077125   6.280199   5.157116   5.494698   3.958125
                    6          7          8          9         10
     6  C    0.000000
     7  O    1.240958   0.000000
     8  N    1.357857   2.303907   0.000000
     9  C    2.518692   3.672920   1.484606   0.000000
    10  C    3.688828   4.646853   2.363078   1.546651   0.000000
    11  C    3.631551   4.253901   2.351890   2.440728   1.551698
    12  C    2.471513   2.847443   1.473782   2.475092   2.418920
    13  O    4.813397   5.247713   3.580767   3.734359   2.524150
    14  H    5.590252   6.112244   4.304660   4.187377   2.795844
    15  H    4.583724   5.021053   5.579269   5.694652   7.238610
    16  H    3.899723   4.663783   4.594329   4.439126   5.929615
    17  H    3.902850   4.662331   4.601043   4.429974   5.951339
    18  H    4.042785   3.896957   5.297441   5.969626   7.411462
    19  H    3.305830   3.512418   4.294473   4.781341   6.171693
    20  H    2.738411   2.314834   3.992478   4.969806   6.244532
    21  H    4.038741   3.898909   5.289767   5.981170   7.387390
    22  H    2.732886   2.319506   3.982373   4.982513   6.215988
    23  H    3.299378   3.518726   4.280238   4.805396   6.124510
    24  H    2.836642   4.028539   2.133049   1.091907   2.214020
    25  H    2.866898   4.027761   2.128461   1.095454   2.203687
    26  H    4.574759   5.588814   3.301587   2.209317   1.093477
    27  H    4.104842   4.997160   2.832524   2.186409   1.094561
    28  H    3.918761   4.514290   2.788928   2.819664   2.182619
    29  H    2.991067   3.202391   2.144307   3.079661   2.843318
    30  H    2.660305   2.627294   2.118891   3.312736   3.375275
                   11         12         13         14         15
    11  C    0.000000
    12  C    1.540429   0.000000
    13  O    1.450968   2.409201   0.000000
    14  H    1.995285   3.275700   0.994343   0.000000
    15  H    7.801266   6.977244   9.132547   9.753480   0.000000
    16  H    6.732205   6.045918   8.006674   8.590415   1.784794
    17  H    6.584316   6.032351   7.987537   8.489748   1.784944
    18  H    7.439492   6.386866   8.719425   9.424882   2.635005
    19  H    6.194800   5.397723   7.559139   8.151359   3.116037
    20  H    6.002723   4.847332   7.195391   7.946054   3.808552
    21  H    7.632432   6.406258   8.746091   9.559016   2.635656
    22  H    6.233715   4.872297   7.226649   8.100164   3.808504
    23  H    6.572551   5.437635   7.611685   8.406964   3.114058
    24  H    3.366328   3.260417   4.506015   4.964521   5.298961
    25  H    2.955188   3.152037   4.352803   4.669045   5.442308
    26  H    2.223881   3.396396   3.018700   2.923581   7.741528
    27  H    2.140860   2.759976   2.593248   2.927189   7.641639
    28  H    1.099563   2.171927   2.129842   2.352856   7.894877
    29  H    2.147470   1.096105   2.444262   3.414130   7.449196
    30  H    2.220687   1.091033   2.928528   3.767953   7.180941
                   16         17         18         19         20
    16  H    0.000000
    17  H    1.778369   0.000000
    18  H    3.812297   3.143826   0.000000
    19  H    3.738694   2.511150   1.781774   0.000000
    20  H    4.297793   3.735026   1.790172   1.784131   0.000000
    21  H    3.146578   3.813087   2.611567   3.800114   3.136040
    22  H    3.735625   4.298178   3.138149   3.761523   2.541669
    23  H    2.511593   3.738825   3.799972   4.313693   3.761024
    24  H    3.814263   4.172821   6.010884   5.026790   5.242950
    25  H    4.357315   3.945183   5.707931   4.301242   4.850236
    26  H    6.419309   6.299636   8.049524   6.675450   6.983216
    27  H    6.198905   6.511952   7.959758   6.888750   6.802240
    28  H    6.985230   6.551697   7.367986   5.957038   5.942984
    29  H    6.419945   6.676096   6.954469   6.173256   5.427797
    30  H    6.497737   6.302131   6.181164   5.218217   4.499650
                   21         22         23         24         25
    21  H    0.000000
    22  H    1.789565   0.000000
    23  H    1.781839   1.784174   0.000000
    24  H    5.652056   4.837965   4.284062   0.000000
    25  H    6.133984   5.331573   5.180018   1.773864   0.000000
    26  H    8.188962   7.138350   6.950196   2.782138   2.441532
    27  H    7.585372   6.371595   6.152345   2.427047   3.075241
    28  H    7.932320   6.612002   7.054598   3.875776   2.927813
    29  H    6.591246   4.967398   5.478013   3.608593   3.960298
    30  H    6.471905   4.881808   5.773601   4.158093   3.764134
                   26         27         28         29         30
    26  H    0.000000
    27  H    1.787526   0.000000
    28  H    2.476201   3.044431   0.000000
    29  H    3.887152   2.751061   3.033886   0.000000
    30  H    4.248547   3.822427   2.435350   1.785843   0.000000
 Stoichiometry    C9H17NO3
 Framework group  C1[X(C9H17NO3)]
 Deg. of freedom    84
 Full point group                 C1      NOp   1
 Largest Abelian subgroup         C1      NOp   1
 Largest concise Abelian subgroup C1      NOp   1
                         Standard orientation:                         
 ---------------------------------------------------------------------
 Center     Atomic      Atomic             Coordinates (Angstroms)
 Number     Number       Type             X           Y           Z
 ---------------------------------------------------------------------
      1          6           0        2.711615    0.160292    0.024459
      2          6           0        3.339933    1.558620    0.067251
      3          6           0        3.035734   -0.644487    1.292948
      4          6           0        3.105541   -0.598451   -1.252567
      5          8           0        1.244080    0.473334   -0.010271
      6          6           0        0.334834   -0.575016   -0.059705
      7          8           0        0.615555   -1.783799   -0.063894
      8          7           0       -0.925821   -0.071724   -0.094694
      9          6           0       -1.261139    1.373356   -0.036719
     10          6           0       -2.801682    1.363214   -0.173655
     11          6           0       -3.220685   -0.009436    0.416289
     12          6           0       -2.107668   -0.952083   -0.079222
     13          8           0       -4.478145   -0.522148   -0.094817
     14          1           0       -5.211866    0.025387    0.293224
     15          1           0        4.431065    1.476211    0.094832
     16          1           0        3.043050    2.126016   -0.819858
     17          1           0        2.995389    2.093099    0.957568
     18          1           0        4.115304   -0.817877    1.352094
     19          1           0        2.717773   -0.083727    2.178318
     20          1           0        2.506598   -1.597588    1.258126
     21          1           0        4.186624   -0.772455   -1.258104
     22          1           0        2.575611   -1.551299   -1.282184
     23          1           0        2.837329   -0.005049   -2.133000
     24          1           0       -0.765571    1.919786   -0.841759
     25          1           0       -0.938670    1.799510    0.919537
     26          1           0       -3.271803    2.212191    0.330245
     27          1           0       -3.094167    1.355235   -1.228383
     28          1           0       -3.200909    0.038759    1.514618
     29          1           0       -2.381306   -1.297866   -1.082717
     30          1           0       -1.934524   -1.813409    0.567688
 ---------------------------------------------------------------------
 Rotational constants (GHZ):      1.9427759      0.3768041      0.3442382
 Leave Link  202 at Wed Oct 19 23:07:11 2011, MaxMem=  128000000 cpu:       0.0
 (Enter /home/foresman/gdv/l301.exe)
 Standard basis: 3-21G (6D, 7F)
 Ernie: Thresh=  0.10000D-02 Tol=  0.10000D-05 Strict=F.
 There are   151 symmetry adapted cartesian basis functions of A   symmetry.
 There are   151 symmetry adapted basis functions of A   symmetry.
   151 basis functions,   246 primitive gaussians,   151 cartesian basis functions
    51 alpha electrons       51 beta electrons
       nuclear repulsion energy       870.0335895777 Hartrees.
 IExCor=  402 DFT=T Ex+Corr=B3LYP ExCW=0 ScaHFX=  0.200000
 ScaDFX=  0.800000  0.720000  1.000000  0.810000 ScalE2=  1.000000  1.000000
 IRadAn=      0 IRanWt=     -1 IRanGd=            0 ICorTp=0 IEmpDi=  4
 NAtoms=   30 NActive=   30 NUniq=   30 SFac= 1.00D+00 NAtFMM=   60 NAOKFM=F Big=F
 Integral buffers will be    131072 words long.
 Raffenetti 2 integral format.
 Two-electron integral symmetry is turned on.
 Leave Link  301 at Wed Oct 19 23:07:11 2011, MaxMem=  128000000 cpu:       0.5
 (Enter /home/foresman/gdv/l302.exe)
 NPDir=0 NMtPBC=     1 NCelOv=     1 NCel=       1 NClECP=     1 NCelD=      1
         NCelK=      1 NCelE2=     1 NClLst=     1 CellRange=     0.0.
 One-electron integrals computed using PRISM.
 NBasis=   151 RedAO= T EigKep=  8.89D-03  NBF=   151
 NBsUse=   151 1.00D-06 EigRej= -1.00D+00 NBFU=   151
 Precomputing XC quadrature grid using
 IXCGrd= 2 IRadAn=           0 IRanWt=          -1 IRanGd=           0 AccXCQ= 0.00D+00.
 NRdTot=    1904 NPtTot=      241556 NUsed=      255287 NTot=      255319
 NSgBfM=   148   148   148   148   148 NAtAll=    30    30.
 Leave Link  302 at Wed Oct 19 23:07:11 2011, MaxMem=  128000000 cpu:       2.1
 (Enter /home/foresman/gdv/l303.exe)
 DipDrv:  MaxL=2.
 Leave Link  303 at Wed Oct 19 23:07:11 2011, MaxMem=  128000000 cpu:       0.4
 (Enter /home/foresman/gdv/l401.exe)
 ExpMin= 1.83D-01 ExpMax= 3.22D+02 ExpMxC= 3.22D+02 IAcc=1 IRadAn=         1 AccDes= 0.00D+00
 Harris functional with IExCor=  402 and IRadAn=       1 diagonalized for initial guess.
 HarFok:  IExCor=  402 AccDes= 0.00D+00 IRadAn=         1 IDoV= 1 UseB2=F ITyADJ=14
 ICtDFT=  3500011 ScaDFX=  1.000000  1.000000  1.000000  1.000000
 FoFCou: FMM=F IPFlag=           0 FMFlag=      100000 FMFlg1=           0
         NFxFlg=           0 DoJE=T BraDBF=F KetDBF=T FulRan=T
         wScrn=  0.000000 ICntrl=     500 IOpCl=  0 I1Cent=   200000004 NGrid=           0
         NMat0=    1 NMatS0=      1 NMatT0=    0 NMatD0=    1 NMtDS0=    0 NMtDT0=    0
 Petite list used in FoFCou.
 Harris En= -630.189132260576    
 Initial guess orbital symmetries:
       Occupied  (A) (A) (A) (A) (A) (A) (A) (A) (A) (A) (A) (A)
                 (A) (A) (A) (A) (A) (A) (A) (A) (A) (A) (A) (A)
                 (A) (A) (A) (A) (A) (A) (A) (A) (A) (A) (A) (A)
                 (A) (A) (A) (A) (A) (A) (A) (A) (A) (A) (A) (A)
                 (A) (A) (A)
       Virtual   (A) (A) (A) (A) (A) (A) (A) (A) (A) (A) (A) (A)
                 (A) (A) (A) (A) (A) (A) (A) (A) (A) (A) (A) (A)
                 (A) (A) (A) (A) (A) (A) (A) (A) (A) (A) (A) (A)
                 (A) (A) (A) (A) (A) (A) (A) (A) (A) (A) (A) (A)
                 (A) (A) (A) (A) (A) (A) (A) (A) (A) (A) (A) (A)
                 (A) (A) (A) (A) (A) (A) (A) (A) (A) (A) (A) (A)
                 (A) (A) (A) (A) (A) (A) (A) (A) (A) (A) (A) (A)
                 (A) (A) (A) (A) (A) (A) (A) (A) (A) (A) (A) (A)
                 (A) (A) (A) (A)
 The electronic state of the initial guess is 1-A.
 Leave Link  401 at Wed Oct 19 23:07:11 2011, MaxMem=  128000000 cpu:       2.8
 (Enter /home/foresman/gdv/l502.exe)
 Closed shell SCF:
 Using DIIS extrapolation, IDIIS=  1040.
 Integral symmetry usage will be decided dynamically.
       255004 words used for storage of precomputed grid.
 Keep R1 ints in memory in canonical form, NReq=67954805.
 IVT=      343951 IEndB=      343951 NGot=   128000000 MDV=    61801024
 LenX=    61801024 LenY=    61777782
 Requested convergence on RMS density matrix=1.00D-08 within 128 cycles.
 Requested convergence on MAX density matrix=1.00D-06.
 Requested convergence on             energy=1.00D-06.
 No special actions if energy rises.
 FoFCou: FMM=F IPFlag=           0 FMFlag=           0 FMFlg1=           0
         NFxFlg=           0 DoJE=F BraDBF=F KetDBF=F FulRan=T
         wScrn=  0.000000 ICntrl=     600 IOpCl=  0 I1Cent=           0 NGrid=           0
         NMat0=    1 NMatS0=  11476 NMatT0=    0 NMatD0=    1 NMtDS0=    0 NMtDT0=    0
 Symmetry not used in FoFCou.
 Integral accuracy reduced to 1.0D-05 until final iterations.

 Cycle   1  Pass 0  IDiag  1:
 E= -629.848257169417    
 DIIS: error= 4.72D-02 at cycle   1 NSaved=   1.
 NSaved= 1 IEnMin= 1 EnMin= -629.848257169417     IErMin= 1 ErrMin= 4.72D-02
 ErrMax= 4.72D-02  0.00D+00 EMaxC= 1.00D-01 BMatC= 3.64D-01 BMatP= 3.64D-01
 IDIUse=3 WtCom= 5.28D-01 WtEn= 4.72D-01
 Coeff-Com:  0.100D+01
 Coeff-En:   0.100D+01
 Coeff:      0.100D+01
 Gap=     0.271 Goal=   None    Shift=    0.000
 GapD=    0.271 DampG=1.000 DampE=0.500 DampFc=0.5000 IDamp=-1.
 Damping current iteration by 5.00D-01
 RMSDP=8.98D-03 MaxDP=1.64D-01              OVMax= 2.55D-01

 Cycle   2  Pass 0  IDiag  1:
 E= -629.948676976008     Delta-E=       -0.100419806592 Rises=F Damp=T
 DIIS: error= 3.28D-02 at cycle   2 NSaved=   2.
 NSaved= 2 IEnMin= 2 EnMin= -629.948676976008     IErMin= 2 ErrMin= 3.28D-02
 ErrMax= 3.28D-02  0.00D+00 EMaxC= 1.00D-01 BMatC= 5.13D-02 BMatP= 3.64D-01
 IDIUse=3 WtCom= 6.72D-01 WtEn= 3.28D-01
 Coeff-Com:  0.202D+00 0.798D+00
 Coeff-En:   0.311D+00 0.689D+00
 Coeff:      0.238D+00 0.762D+00
 Gap=     0.298 Goal=   None    Shift=    0.000
 RMSDP=2.79D-03 MaxDP=6.11D-02 DE=-1.00D-01 OVMax= 2.05D-01

 Cycle   3  Pass 0  IDiag  1:
 E= -630.124873910567     Delta-E=       -0.176196934558 Rises=F Damp=F
 DIIS: error= 3.98D-02 at cycle   3 NSaved=   3.
 NSaved= 3 IEnMin= 3 EnMin= -630.124873910567     IErMin= 2 ErrMin= 3.28D-02
 ErrMax= 3.98D-02  0.00D+00 EMaxC= 1.00D-01 BMatC= 6.22D-02 BMatP= 5.13D-02
 IDIUse=2 WtCom= 0.00D+00 WtEn= 1.00D+00
 Coeff-En:   0.000D+00 0.000D+00 0.100D+01
 Coeff:      0.000D+00 0.000D+00 0.100D+01
 Gap=     0.330 Goal=   None    Shift=    0.000
 RMSDP=5.26D-03 MaxDP=1.31D-01 DE=-1.76D-01 OVMax= 3.08D-01

 Cycle   4  Pass 0  IDiag  1:
 E= -629.882622804105     Delta-E=        0.242251106462 Rises=F Damp=F
 DIIS: error= 1.10D-01 at cycle   4 NSaved=   4.
 NSaved= 4 IEnMin= 3 EnMin= -630.124873910567     IErMin= 2 ErrMin= 3.28D-02
 ErrMax= 1.10D-01  0.00D+00 EMaxC= 1.00D-01 BMatC= 3.74D-01 BMatP= 5.13D-02
 IDIUse=2 WtCom= 0.00D+00 WtEn= 1.00D+00
 Coeff-En:   0.000D+00 0.000D+00 0.797D+00 0.203D+00
 Coeff:      0.000D+00 0.000D+00 0.797D+00 0.203D+00
 Gap=     0.294 Goal=   None    Shift=    0.000
 RMSDP=2.86D-03 MaxDP=7.40D-02 DE= 2.42D-01 OVMax= 1.45D-01

 Cycle   5  Pass 0  IDiag  1:
 E= -630.157110161414     Delta-E=       -0.274487357309 Rises=F Damp=F
 DIIS: error= 2.64D-02 at cycle   5 NSaved=   5.
 NSaved= 5 IEnMin= 5 EnMin= -630.157110161414     IErMin= 5 ErrMin= 2.64D-02
 ErrMax= 2.64D-02  0.00D+00 EMaxC= 1.00D-01 BMatC= 2.46D-02 BMatP= 5.13D-02
 IDIUse=3 WtCom= 7.36D-01 WtEn= 2.64D-01
 Coeff-Com: -0.119D-01 0.556D-01 0.314D+00-0.732D-01 0.716D+00
 Coeff-En:   0.000D+00 0.000D+00 0.322D+00 0.000D+00 0.678D+00
 Coeff:     -0.874D-02 0.409D-01 0.316D+00-0.539D-01 0.706D+00
 Gap=     0.301 Goal=   None    Shift=    0.000
 RMSDP=1.06D-03 MaxDP=2.64D-02 DE=-2.74D-01 OVMax= 4.35D-02

 Cycle   6  Pass 0  IDiag  1:
 E= -630.177073738281     Delta-E=       -0.019963576867 Rises=F Damp=F
 DIIS: error= 2.59D-03 at cycle   6 NSaved=   6.
 NSaved= 6 IEnMin= 6 EnMin= -630.177073738281     IErMin= 6 ErrMin= 2.59D-03
 ErrMax= 2.59D-03  0.00D+00 EMaxC= 1.00D-01 BMatC= 2.83D-04 BMatP= 2.46D-02
 IDIUse=3 WtCom= 9.74D-01 WtEn= 2.59D-02
 Coeff-Com: -0.100D-01 0.256D-01 0.135D+00-0.463D-01 0.405D+00 0.490D+00
 Coeff-En:   0.000D+00 0.000D+00 0.000D+00 0.000D+00 0.000D+00 0.100D+01
 Coeff:     -0.975D-02 0.249D-01 0.132D+00-0.451D-01 0.395D+00 0.504D+00
 Gap=     0.285 Goal=   None    Shift=    0.000
 RMSDP=1.18D-04 MaxDP=3.65D-03 DE=-2.00D-02 OVMax= 6.31D-03

 Cycle   7  Pass 0  IDiag  1:
 E= -630.177297835561     Delta-E=       -0.000224097280 Rises=F Damp=F
 DIIS: error= 4.37D-04 at cycle   7 NSaved=   7.
 NSaved= 7 IEnMin= 7 EnMin= -630.177297835561     IErMin= 7 ErrMin= 4.37D-04
 ErrMax= 4.37D-04  0.00D+00 EMaxC= 1.00D-01 BMatC= 8.74D-06 BMatP= 2.83D-04
 IDIUse=3 WtCom= 9.96D-01 WtEn= 4.37D-03
 Coeff-Com: -0.309D-02 0.729D-02 0.325D-01-0.155D-01 0.116D+00 0.241D+00
 Coeff-Com:  0.622D+00
 Coeff-En:   0.000D+00 0.000D+00 0.000D+00 0.000D+00 0.000D+00 0.000D+00
 Coeff-En:   0.100D+01
 Coeff:     -0.308D-02 0.726D-02 0.324D-01-0.155D-01 0.115D+00 0.240D+00
 Coeff:      0.624D+00
 Gap=     0.285 Goal=   None    Shift=    0.000
 RMSDP=1.83D-05 MaxDP=4.67D-04 DE=-2.24D-04 OVMax= 6.59D-04

 Cycle   8  Pass 0  IDiag  1:
 E= -630.177304453271     Delta-E=       -0.000006617709 Rises=F Damp=F
 DIIS: error= 6.57D-05 at cycle   8 NSaved=   8.
 NSaved= 8 IEnMin= 8 EnMin= -630.177304453271     IErMin= 8 ErrMin= 6.57D-05
 ErrMax= 6.57D-05  0.00D+00 EMaxC= 1.00D-01 BMatC= 5.45D-07 BMatP= 8.74D-06
 IDIUse=1 WtCom= 1.00D+00 WtEn= 0.00D+00
 Coeff-Com: -0.266D-03-0.143D-03 0.252D-02-0.152D-02 0.128D-01 0.831D-01
 Coeff-Com:  0.318D+00 0.585D+00
 Coeff:     -0.266D-03-0.143D-03 0.252D-02-0.152D-02 0.128D-01 0.831D-01
 Coeff:      0.318D+00 0.585D+00
 Gap=     0.285 Goal=   None    Shift=    0.000
 RMSDP=5.70D-06 MaxDP=1.31D-04 DE=-6.62D-06 OVMax= 1.84D-04

 Initial convergence to 1.0D-05 achieved.  Increase integral accuracy.
 Cycle   9  Pass 1  IDiag  1:
 E= -630.177417002246     Delta-E=       -0.000112548975 Rises=F Damp=F
 DIIS: error= 1.87D-05 at cycle   1 NSaved=   1.
 NSaved= 1 IEnMin= 1 EnMin= -630.177417002246     IErMin= 1 ErrMin= 1.87D-05
 ErrMax= 1.87D-05  0.00D+00 EMaxC= 1.00D-01 BMatC= 7.10D-08 BMatP= 7.10D-08
 IDIUse=1 WtCom= 1.00D+00 WtEn= 0.00D+00
 Coeff-Com:  0.100D+01
 Coeff:      0.100D+01
 Gap=     0.285 Goal=   None    Shift=    0.000
 RMSDP=5.70D-06 MaxDP=1.31D-04 DE=-1.13D-04 OVMax= 7.72D-05

 Cycle  10  Pass 1  IDiag  1:
 E= -630.177417078330     Delta-E=       -0.000000076084 Rises=F Damp=F
 DIIS: error= 2.00D-05 at cycle   2 NSaved=   2.
 NSaved= 2 IEnMin= 2 EnMin= -630.177417078330     IErMin= 1 ErrMin= 1.87D-05
 ErrMax= 2.00D-05  0.00D+00 EMaxC= 1.00D-01 BMatC= 2.84D-08 BMatP= 7.10D-08
 IDIUse=1 WtCom= 1.00D+00 WtEn= 0.00D+00
 Coeff-Com:  0.333D+00 0.667D+00
 Coeff:      0.333D+00 0.667D+00
 Gap=     0.285 Goal=   None    Shift=    0.000
 RMSDP=1.86D-06 MaxDP=4.73D-05 DE=-7.61D-08 OVMax= 6.63D-05

 Cycle  11  Pass 1  IDiag  1:
 E= -630.177417085456     Delta-E=       -0.000000007126 Rises=F Damp=F
 DIIS: error= 1.75D-05 at cycle   3 NSaved=   3.
 NSaved= 3 IEnMin= 3 EnMin= -630.177417085456     IErMin= 3 ErrMin= 1.75D-05
 ErrMax= 1.75D-05  0.00D+00 EMaxC= 1.00D-01 BMatC= 2.03D-08 BMatP= 2.84D-08
 IDIUse=1 WtCom= 1.00D+00 WtEn= 0.00D+00
 Coeff-Com: -0.210D-01 0.461D+00 0.560D+00
 Coeff:     -0.210D-01 0.461D+00 0.560D+00
 Gap=     0.285 Goal=   None    Shift=    0.000
 RMSDP=8.12D-07 MaxDP=2.33D-05 DE=-7.13D-09 OVMax= 2.98D-05

 Cycle  12  Pass 1  IDiag  1:
 E= -630.177417100022     Delta-E=       -0.000000014566 Rises=F Damp=F
 DIIS: error= 1.67D-06 at cycle   4 NSaved=   4.
 NSaved= 4 IEnMin= 4 EnMin= -630.177417100022     IErMin= 4 ErrMin= 1.67D-06
 ErrMax= 1.67D-06  0.00D+00 EMaxC= 1.00D-01 BMatC= 2.27D-10 BMatP= 2.03D-08
 IDIUse=1 WtCom= 1.00D+00 WtEn= 0.00D+00
 Coeff-Com: -0.155D-01 0.232D+00 0.285D+00 0.498D+00
 Coeff:     -0.155D-01 0.232D+00 0.285D+00 0.498D+00
 Gap=     0.285 Goal=   None    Shift=    0.000
 RMSDP=1.11D-07 MaxDP=3.49D-06 DE=-1.46D-08 OVMax= 2.44D-06

 Cycle  13  Pass 1  IDiag  1:
 E= -630.177417100209     Delta-E=       -0.000000000187 Rises=F Damp=F
 DIIS: error= 3.67D-07 at cycle   5 NSaved=   5.
 NSaved= 5 IEnMin= 5 EnMin= -630.177417100209     IErMin= 5 ErrMin= 3.67D-07
 ErrMax= 3.67D-07  0.00D+00 EMaxC= 1.00D-01 BMatC= 1.05D-11 BMatP= 2.27D-10
 IDIUse=1 WtCom= 1.00D+00 WtEn= 0.00D+00
 Coeff-Com: -0.413D-02 0.453D-01 0.520D-01 0.200D+00 0.707D+00
 Coeff:     -0.413D-02 0.453D-01 0.520D-01 0.200D+00 0.707D+00
 Gap=     0.285 Goal=   None    Shift=    0.000
 RMSDP=3.07D-08 MaxDP=8.62D-07 DE=-1.87D-10 OVMax= 1.03D-06

 Cycle  14  Pass 1  IDiag  1:
 E= -630.177417100207     Delta-E=        0.000000000002 Rises=F Damp=F
 DIIS: error= 8.55D-08 at cycle   6 NSaved=   6.
 NSaved= 6 IEnMin= 5 EnMin= -630.177417100209     IErMin= 6 ErrMin= 8.55D-08
 ErrMax= 8.55D-08  0.00D+00 EMaxC= 1.00D-01 BMatC= 1.10D-12 BMatP= 1.05D-11
 IDIUse=1 WtCom= 1.00D+00 WtEn= 0.00D+00
 Coeff-Com: -0.128D-02 0.114D-01 0.125D-01 0.713D-01 0.345D+00 0.561D+00
 Coeff:     -0.128D-02 0.114D-01 0.125D-01 0.713D-01 0.345D+00 0.561D+00
 Gap=     0.285 Goal=   None    Shift=    0.000
 RMSDP=9.65D-09 MaxDP=3.45D-07 DE= 1.82D-12 OVMax= 2.93D-07

 SCF Done:  E(RB3LYP) =  -630.177417100     A.U. after   14 cycles
            NFock= 14  Conv=0.97D-08     -V/T= 2.0085
 KE= 6.248471444145D+02 PE=-3.209723647899D+03 EE= 1.084665496806D+03
 Leave Link  502 at Wed Oct 19 23:07:23 2011, MaxMem=  128000000 cpu:      89.9
 (Enter /home/foresman/gdv/l801.exe)
 DoSCS=F DFT=T ScalE2(SS,OS)=  1.000000  1.000000
 Range of M.O.s used for correlation:     1   151
 NBasis=   151 NAE=    51 NBE=    51 NFC=     0 NFV=     0
 NROrb=    151 NOA=    51 NOB=    51 NVA=   100 NVB=   100
 Leave Link  801 at Wed Oct 19 23:07:23 2011, MaxMem=  128000000 cpu:       0.3
 (Enter /home/foresman/gdv/l1002.exe)
 Minotr:  Closed shell wavefunction.
          Direct CPHF calculation.
          Differentiating once with respect to magnetic field using GIAOs.
          Electric field/nuclear overlap derivatives assumed to be zero.
          Requested convergence is 1.0D-08 RMS, and 1.0D-07 maximum.
          Secondary convergence is 1.0D-12 RMS, and 1.0D-12 maximum.
          NewPWx=T KeepS1=F KeepF1=F KeepIn=T MapXYZ=F SortEE=F KeepMc=T.
          MDV=     127999605 using IRadAn=       2.
 Generate precomputed XC quadrature information.
 Keep R3 ints in memory in canonical form, NReq=67618787.
 FoFCou: FMM=F IPFlag=           0 FMFlag=           0 FMFlg1=           0
         NFxFlg=           0 DoJE=F BraDBF=F KetDBF=F FulRan=T
         wScrn=  0.000000 ICntrl=     600 IOpCl=  0 I1Cent=           0 NGrid=           0
         NMat0=    1 NMatS0=  11476 NMatT0=    0 NMatD0=    1 NMtDS0=    0 NMtDT0=    0
 Symmetry not used in FoFCou.
          Solving linear equations simultaneously, MaxMat=       0.
 FoFJK:  IHMeth= 1 ICntrl=    6127 DoSepK=F KAlg= 0 I1Cent=   0 FoldK=F
 IRaf=       1 NMat=   1 IRICut=       1 DoRegI=T DoRafI=F ISym2E= 0.
          There are     3 degrees of freedom in the 1st order CPHF.  IDoFFX=0 NUNeed=     3.
      3 vectors produced by pass  0 Test12= 1.70D-13 3.33D-08 XBig12= 2.82D+01 8.72D-01.
 AX will form     3 AO Fock derivatives at one time.
      3 vectors produced by pass  1 Test12= 1.70D-13 3.33D-08 XBig12= 3.24D-02 8.87D-02.
      3 vectors produced by pass  2 Test12= 1.70D-13 3.33D-08 XBig12= 2.27D-04 7.63D-03.
      3 vectors produced by pass  3 Test12= 1.70D-13 3.33D-08 XBig12= 4.33D-07 1.51D-04.
      3 vectors produced by pass  4 Test12= 1.70D-13 3.33D-08 XBig12= 1.10D-09 7.98D-06.
      3 vectors produced by pass  5 Test12= 1.70D-13 3.33D-08 XBig12= 3.45D-12 3.59D-07.
 InvSVY:  IOpt=1 It=  1 EMax= 5.55D-17
 Solved reduced A of dimension    18 with     3 vectors.
 Calculating GIAO nuclear magnetic shielding tensors.
 SCF GIAO Magnetic shielding tensor (ppm):
      1  C    Isotropic =   124.4295   Anisotropy =    68.7493
   XX=   169.3474   YX=    -8.0662   ZX=     1.5483
   XY=    -7.6475   YY=   100.1965   ZY=    -0.2244
   XZ=     1.4010   YZ=    -0.2869   ZZ=   103.7447
   Eigenvalues:    99.3132   103.7130   170.2624
      2  C    Isotropic =   173.8530   Anisotropy =    40.9631
   XX=   166.7846   YX=    15.6978   ZX=     0.4903
   XY=    13.0574   YY=   195.1138   ZY=     0.9718
   XZ=     0.3458   YZ=     1.0803   ZZ=   159.6607
   Eigenvalues:   159.6310   160.7663   201.1617
      3  C    Isotropic =   178.6811   Anisotropy =    35.3133
   XX=   169.7660   YX=    -7.5982   ZX=     4.1576
   XY=    -7.1367   YY=   171.6433   ZY=   -14.7682
   XZ=     0.3252   YZ=   -13.5342   ZZ=   194.6341
   Eigenvalues:   160.9405   172.8796   202.2234
      4  C    Isotropic =   178.7898   Anisotropy =    35.4894
   XX=   170.1899   YX=    -8.0543   ZX=    -5.7795
   XY=    -7.8500   YY=   170.5430   ZY=    13.6150
   XZ=    -1.7625   YZ=    12.1533   ZZ=   195.6365
   Eigenvalues:   160.9171   173.0028   202.4494
      5  O    Isotropic =   160.4743   Anisotropy =    75.5648
   XX=   139.2128   YX=    12.5444   ZX=    -2.1383
   XY=   134.4878   YY=   134.7755   ZY=     2.9202
   XZ=     5.4737   YZ=    -3.4211   ZZ=   207.4346
   Eigenvalues:    63.4321   207.1400   210.8509
      6  C    Isotropic =    62.3518   Anisotropy =    63.1257
   XX=     1.6721   YX=   -28.4193   ZX=    -3.5747
   XY=   -46.5716   YY=    90.7536   ZY=    -1.7082
   XZ=    -4.7417   YZ=    -1.1270   ZZ=    94.6296
   Eigenvalues:   -12.1896    94.8093   104.4356
      7  O    Isotropic =    43.2196   Anisotropy =   379.8921
   XX=   -65.0892   YX=    10.9891   ZX=   -17.2232
   XY=    -1.6658   YY=  -100.5197   ZY=    -7.6393
   XZ=    -3.6924   YZ=   -30.1191   ZZ=   295.2677
   Eigenvalues:  -101.8919   -64.9302   296.4810
      8  N    Isotropic =   180.3352   Anisotropy =   130.7226
   XX=   255.8737   YX=   -27.2555   ZX=    -4.0039
   XY=   -49.1630   YY=   141.5637   ZY=    -3.3843
   XZ=    -0.8615   YZ=    -3.4772   ZZ=   143.5683
   Eigenvalues:   128.8834   144.6386   267.4836
      9  C    Isotropic =   158.6014   Anisotropy =    46.5344
   XX=   162.7164   YX=   -14.4310   ZX=    -2.4143
   XY=   -13.6145   YY=   182.2751   ZY=     1.1672
   XZ=     2.3046   YZ=     1.8966   ZZ=   130.8127
   Eigenvalues:   130.7624   155.4174   189.6243
     10  C    Isotropic =   168.3976   Anisotropy =    32.2080
   XX=   175.3090   YX=     8.8446   ZX=     0.3185
   XY=     9.4330   YY=   180.8882   ZY=   -10.2595
   XZ=     4.7125   YZ=   -15.8109   ZZ=   148.9957
   Eigenvalues:   143.3758   171.9475   189.8696
     11  C    Isotropic =   133.3228   Anisotropy =    59.2729
   XX=   166.8947   YX=    13.5294   ZX=    15.0064
   XY=    14.4660   YY=   131.7748   ZY=    -0.6558
   XZ=     5.6008   YZ=    -6.1860   ZZ=   101.2988
   Eigenvalues:    98.7256   128.4047   172.8380
     12  C    Isotropic =   153.5770   Anisotropy =    41.9669
   XX=   178.5030   YX=    10.7374   ZX=    -6.9327
   XY=     7.4889   YY=   148.2922   ZY=     2.8690
   XZ=    -7.5618   YZ=    13.2859   ZZ=   133.9357
   Eigenvalues:   128.1314   151.0446   181.5549
     13  O    Isotropic =   276.1354   Anisotropy =    55.3354
   XX=   290.0967   YX=    -9.4475   ZX=    -6.9994
   XY=   -32.5346   YY=   262.6770   ZY=    -3.4300
   XZ=   -31.0365   YZ=    20.4952   ZZ=   275.6325
   Eigenvalues:   251.1642   264.2163   313.0257
     14  H    Isotropic =    32.3162   Anisotropy =    16.7595
   XX=    41.3470   YX=    -3.5726   ZX=    -3.1734
   XY=    -4.0623   YY=    28.6863   ZY=     3.1362
   XZ=    -3.7597   YZ=     3.2397   ZZ=    26.9151
   Eigenvalues:    24.4763    28.9830    43.4892
     15  H    Isotropic =    31.8009   Anisotropy =     8.8021
   XX=    36.2999   YX=     2.8399   ZX=     0.2506
   XY=     3.2018   YY=    30.9498   ZY=     0.1443
   XZ=     0.2763   YZ=     0.1199   ZZ=    28.1531
   Eigenvalues:    28.1439    29.5899    37.6690
     16  H    Isotropic =    31.3685   Anisotropy =     7.9470
   XX=    29.0381   YX=     1.1923   ZX=    -0.0527
   XY=     0.4057   YY=    34.2116   ZY=    -4.3147
   XZ=     0.4382   YZ=    -3.1465   ZZ=    30.8557
   Eigenvalues:    28.0641    29.3748    36.6665
     17  H    Isotropic =    31.3995   Anisotropy =     7.9156
   XX=    29.1003   YX=     1.0077   ZX=    -0.0287
   XY=     0.1815   YY=    33.9690   ZY=     4.4350
   XZ=    -0.5029   YZ=     3.2843   ZZ=    31.1292
   Eigenvalues:    28.1158    29.4061    36.6766
     18  H    Isotropic =    31.9947   Anisotropy =     9.1365
   XX=    35.4214   YX=    -2.6467   ZX=     2.6641
   XY=    -2.8855   YY=    29.5171   ZY=    -1.8256
   XZ=     3.0011   YZ=    -1.8733   ZZ=    31.0455
   Eigenvalues:    28.1356    29.7628    38.0856
     19  H    Isotropic =    31.8637   Anisotropy =     7.7966
   XX=    29.6213   YX=    -0.6802   ZX=     0.4075
   XY=    -0.4063   YY=    29.0013   ZY=     0.1777
   XZ=    -0.4647   YZ=     1.5440   ZZ=    36.9685
   Eigenvalues:    28.6207    29.9089    37.0614
     20  H    Isotropic =    29.7715   Anisotropy =     6.5298
   XX=    29.2575   YX=     1.8493   ZX=     2.2841
   XY=     2.5036   YY=    32.4591   ZY=    -2.1112
   XZ=     2.8249   YZ=    -3.9632   ZZ=    27.5979
   Eigenvalues:    24.0764    31.1134    34.1247
     21  H    Isotropic =    31.9853   Anisotropy =     9.1599
   XX=    35.7131   YX=    -2.6412   ZX=    -2.5527
   XY=    -2.8802   YY=    29.3661   ZY=     1.6822
   XZ=    -2.8392   YZ=     1.6455   ZZ=    30.8768
   Eigenvalues:    28.1054    29.7586    38.0919
     22  H    Isotropic =    29.7534   Anisotropy =     6.5565
   XX=    29.5223   YX=     1.7355   ZX=    -2.1892
   XY=     2.4699   YY=    32.1717   ZY=     2.5624
   XZ=    -2.6658   YZ=     4.2321   ZZ=    27.5662
   Eigenvalues:    23.9806    31.1552    34.1244
     23  H    Isotropic =    31.8065   Anisotropy =     7.8895
   XX=    29.5463   YX=    -0.5280   ZX=    -0.8765
   XY=    -0.3812   YY=    28.9920   ZY=    -0.4256
   XZ=     0.0458   YZ=    -1.9086   ZZ=    36.8811
   Eigenvalues:    28.5568    29.7964    37.0661
     24  H    Isotropic =    29.5242   Anisotropy =     7.1846
   XX=    30.9917   YX=     0.4799   ZX=    -1.8610
   XY=     1.0646   YY=    30.7881   ZY=    -4.8245
   XZ=    -1.8167   YZ=    -3.6506   ZZ=    26.7928
   Eigenvalues:    23.9147    30.3440    34.3139
     25  H    Isotropic =    29.7837   Anisotropy =     7.7173
   XX=    30.0764   YX=    -0.3715   ZX=     2.1468
   XY=     0.0758   YY=    30.9424   ZY=     4.8889
   XZ=     2.2084   YZ=     4.7038   ZZ=    28.3323
   Eigenvalues:    24.0994    30.3232    34.9285
     26  H    Isotropic =    31.2470   Anisotropy =     9.2559
   XX=    31.5190   YX=    -2.8135   ZX=    -1.4456
   XY=    -3.8534   YY=    34.8394   ZY=     2.2046
   XZ=    -1.0008   YZ=     1.6254   ZZ=    27.3827
   Eigenvalues:    26.8679    29.4555    37.4176
     27  H    Isotropic =    30.8715   Anisotropy =     7.8155
   XX=    31.6381   YX=    -0.2297   ZX=     2.8200
   XY=    -1.0652   YY=    28.1583   ZY=    -3.4643
   XZ=     2.9457   YZ=    -2.3018   ZZ=    32.8181
   Eigenvalues:    26.6694    29.8633    36.0819
     28  H    Isotropic =    28.5704   Anisotropy =     5.0468
   XX=    28.7711   YX=     0.2776   ZX=    -0.2254
   XY=     0.9400   YY=    25.6257   ZY=    -0.2593
   XZ=    -2.3250   YZ=    -0.8743   ZZ=    31.3144
   Eigenvalues:    25.4922    28.2841    31.9349
     29  H    Isotropic =    29.5578   Anisotropy =     8.4764
   XX=    30.5140   YX=     2.5973   ZX=     1.3096
   XY=     2.4249   YY=    28.5706   ZY=     4.6019
   XZ=     1.4624   YZ=     4.4209   ZZ=    29.5888
   Eigenvalues:    24.3713    29.0933    35.2087
     30  H    Isotropic =    29.0076   Anisotropy =     6.7852
   XX=    29.8482   YX=     0.5512   ZX=    -0.9547
   XY=     0.1774   YY=    31.9746   ZY=    -3.6506
   XZ=    -0.1363   YZ=    -3.3250   ZZ=    25.2001
   Eigenvalues:    23.7042    29.7877    33.5311
 End of Minotr F.D. properties file   721 does not exist.
 End of Minotr F.D. properties file   722 does not exist.
 Leave Link 1002 at Wed Oct 19 23:07:33 2011, MaxMem=  128000000 cpu:      79.8
 (Enter /home/foresman/gdv/l1101.exe)
 Using compressed storage, NAtomX=    30.
 Will process     31 centers per pass.
 Leave Link 1101 at Wed Oct 19 23:07:33 2011, MaxMem=  128000000 cpu:       1.8
 (Enter /home/foresman/gdv/l1102.exe)
 Symmetrizing basis deriv contribution to polar:
 IMax=3 JMax=2 DiffMx= 0.00D+00
 Leave Link 1102 at Wed Oct 19 23:07:33 2011, MaxMem=  128000000 cpu:       0.4
 (Enter /home/foresman/gdv/l1110.exe)
 Forming Gx(P) for the SCF density, NAtomX=    30.
 Integral derivatives from FoFJK, PRISM(SPDF).
 Do as many integral derivatives as possible in FoFJK.
 G2DrvN: MDV=     127999656.
 G2DrvN: will do    31 centers at a time, making    1 passes.
 Calling FoFCou, ICntrl=  3107 FMM=F I1Cent=   0 AccDes= 0.00D+00.
 FoFJK:  IHMeth= 1 ICntrl=    3107 DoSepK=F KAlg= 0 I1Cent=   0 FoldK=F
 IRaf=       0 NMat=   1 IRICut=       1 DoRegI=T DoRafI=F ISym2E= 0.
 FoFCou: FMM=F IPFlag=           0 FMFlag=      100000 FMFlg1=           0
         NFxFlg=           0 DoJE=F BraDBF=F KetDBF=F FulRan=T
         wScrn=  0.000000 ICntrl=    3107 IOpCl=  0 I1Cent=           0 NGrid=           0
         NMat0=    1 NMatS0=      1 NMatT0=    0 NMatD0=    1 NMtDS0=    0 NMtDT0=    0
 Symmetry not used in FoFCou.
 End of G2Drv F.D. properties file   721 does not exist.
 End of G2Drv F.D. properties file   722 does not exist.
 Leave Link 1110 at Wed Oct 19 23:08:05 2011, MaxMem=  128000000 cpu:     250.9
 (Enter /home/foresman/gdv/l1002.exe)
 Minotr:  Closed shell wavefunction.
          IDoAtm=111111111111111111111111111111
          Direct CPHF calculation.
          Differentiating once with respect to electric field.
                with respect to dipole field.
          Differentiating once with respect to nuclear coordinates.
          Requested convergence is 1.0D-08 RMS, and 1.0D-07 maximum.
          Secondary convergence is 1.0D-12 RMS, and 1.0D-12 maximum.
          NewPWx=T KeepS1=F KeepF1=F KeepIn=T MapXYZ=F SortEE=F KeepMc=T.
          MDV=     127999545 using IRadAn=       2.
 Generate precomputed XC quadrature information.
 Keep R1 ints in memory in canonical form, NReq=67619516.
 FoFCou: FMM=F IPFlag=           0 FMFlag=           0 FMFlg1=           0
         NFxFlg=           0 DoJE=F BraDBF=F KetDBF=F FulRan=T
         wScrn=  0.000000 ICntrl=     600 IOpCl=  0 I1Cent=           0 NGrid=           0
         NMat0=    1 NMatS0=  11476 NMatT0=    0 NMatD0=    1 NMtDS0=    0 NMtDT0=    0
 Symmetry not used in FoFCou.
          Solving linear equations simultaneously, MaxMat=       0.
          There are    93 degrees of freedom in the 1st order CPHF.  IDoFFX=5 NUNeed=    93.
     90 vectors produced by pass  0 Test12= 5.48D-15 1.08D-09 XBig12= 7.67D+01 3.49D+00.
 AX will form    90 AO Fock derivatives at one time.
     90 vectors produced by pass  1 Test12= 5.48D-15 1.08D-09 XBig12= 1.84D+01 1.39D+00.
     90 vectors produced by pass  2 Test12= 5.48D-15 1.08D-09 XBig12= 7.29D-02 3.02D-02.
     90 vectors produced by pass  3 Test12= 5.48D-15 1.08D-09 XBig12= 1.01D-04 1.13D-03.
     90 vectors produced by pass  4 Test12= 5.48D-15 1.08D-09 XBig12= 7.72D-08 3.70D-05.
     43 vectors produced by pass  5 Test12= 5.48D-15 1.08D-09 XBig12= 4.50D-11 8.45D-07.
      3 vectors produced by pass  6 Test12= 5.48D-15 1.08D-09 XBig12= 2.00D-14 1.18D-08.
 InvSVY:  IOpt=1 It=  1 EMax= 1.95D-14
 Solved reduced A of dimension   496 with    93 vectors.
 FullF1:  Do perturbations    1 to     3.
 Isotropic polarizability for W=    0.000000      103.88 Bohr**3.
 Dipole-magnetic dipole polarizability for W=    0.000000:
                 1             2             3 
      1   0.235383D+01  0.100209D+01 -0.135593D+02
      2   0.162105D+01 -0.610467D+01  0.349922D+02
      3   0.314774D+00 -0.153767D+02  0.429681D+01
 DQ contribution to OR G for W=    0.000000:
                 1             2             3 
      1  -0.404162D+00  0.872110D+01 -0.534813D+02
      2  -0.561099D+01 -0.609435D+01  0.778428D+02
      3   0.379611D+02 -0.598140D+02  0.649851D+01
 Optical Rotation G' tensor for W=    0.000000:
                 1             2             3 
      1  -0.100497D+01 -0.267023D+00  0.137110D+01
      2  -0.267023D+00  0.180173D+01 -0.265027D+01
      3   0.137110D+01 -0.265027D+01 -0.250796D+00
 OR G Eigenvalues:    -2.6937    -0.5898     3.8295  Iso=    -0.1820
 Eigenvectors:
   (1)  -0.537039   0.404506   0.740246
   (2)   0.817451   0.466178   0.338308
   (3)  -0.208239   0.786799  -0.581020
 w=    0.000000 a.u., Optical Rotation Beta=     -0.1820 au.
 Molar Mass =    187.2382 grams/mole, [Alpha]D (static) =      -37.57 deg.
 AAT (total):
  0.0055 -0.0186 -0.1746
 -0.0039  0.0009  0.3937
  0.0996 -0.3736 -0.0019
 -0.0025 -0.0017  0.1540
  0.0055  0.0043 -0.1965
 -0.1039  0.0246 -0.0024
  0.0567 -0.1803 -0.1662
  0.1457 -0.1250 -0.1984
  0.0482  0.1946  0.0852
 -0.0521  0.1833 -0.1572
 -0.1410  0.1210 -0.1985
  0.0414  0.2117 -0.0904
 -0.0022  0.0349  0.3978
 -0.0055  0.0066 -0.2486
 -0.5521  0.4559  0.0082
 -0.0364 -0.0924  0.6606
  0.0579  0.0218 -0.3070
 -0.2189 -0.0740  0.0357
 -0.0073  0.0372 -1.0607
 -0.0642 -0.0371  0.1669
  1.0777  0.2156  0.0228
  0.0351  0.0271 -0.2839
 -0.0207 -0.0590  0.4321
  0.0321 -0.4345  0.0325
 -0.0181 -0.0519 -0.0898
  0.0898  0.0287 -0.3080
 -0.0371  0.2504 -0.0927
  0.0132  0.0633  0.2556
  0.0266  0.1299  0.2564
 -0.1509 -0.0281 -0.0926
 -0.0373  0.0993  0.0369
  0.0208 -0.1046 -0.7226
 -0.0266  0.5853  0.2004
 -0.0156  0.1156 -0.0360
 -0.0191  0.0016 -0.1087
  0.0635  0.2036 -0.0190
  0.0542 -0.2209  0.2821
 -0.0775  0.3808  1.1311
  0.2065 -1.1433 -0.3716
 -0.0050  0.2283 -0.3690
 -0.0568 -0.3068 -0.5109
  0.0247  0.6712  0.3330
 -0.0059  0.0077  0.1783
 -0.0057  0.0005  0.2243
  0.0415 -0.2776  0.0049
 -0.0496 -0.0470 -0.0730
  0.2029 -0.1236 -0.0784
 -0.0260  0.1647  0.2204
  0.0560  0.0359 -0.0559
 -0.1974  0.1197 -0.0763
 -0.0246  0.1782 -0.2221
 -0.0237 -0.1081 -0.0021
 -0.0448  0.0136  0.2716
 -0.0371 -0.2302  0.0112
 -0.0577  0.0688 -0.0202
 -0.0664  0.1881 -0.0258
  0.1975  0.2178 -0.0766
 -0.0389  0.0243  0.2090
  0.0677 -0.0605 -0.1757
 -0.2124 -0.0236  0.1212
  0.0283  0.1284  0.0055
  0.0358 -0.0168  0.2744
 -0.0337 -0.2247 -0.0114
  0.0333 -0.0389  0.2127
 -0.0507  0.0708 -0.1728
 -0.2046 -0.0162 -0.1271
  0.0494 -0.0858 -0.0254
  0.0626 -0.1951 -0.0319
  0.2005  0.2014  0.0928
  0.0571 -0.1318 -0.0471
  0.1398  0.0213  0.0971
 -0.0468 -0.0516 -0.1495
 -0.0458  0.1481 -0.0512
 -0.1540 -0.0002  0.0489
 -0.1205 -0.0782  0.1235
  0.0431  0.1391 -0.2153
 -0.1508 -0.0887  0.0005
  0.0703  0.0745  0.0756
 -0.0156 -0.2474  0.0002
  0.1734 -0.0562 -0.1080
 -0.0992 -0.1267  0.0219
 -0.0098  0.0155 -0.0186
 -0.0725 -0.0413  0.0381
 -0.0094 -0.2668 -0.0240
 -0.0008 -0.2122  0.0805
  0.1666  0.0165 -0.1023
  0.0919 -0.1066  0.0277
  0.0464  0.0847  0.1478
 -0.1579  0.0394  0.0492
 -0.0443 -0.0184 -0.1384
 End of Minotr F.D. properties file   721 does not exist.
 End of Minotr F.D. properties file   722 does not exist.
 Leave Link 1002 at Wed Oct 19 23:08:33 2011, MaxMem=  128000000 cpu:     230.5
 (Enter /home/foresman/gdv/l601.exe)
 Copying SCF densities to generalized density rwf, IOpCl= 0 IROHF=0.

 **********************************************************************

            Population analysis using the SCF density.

 **********************************************************************

 Orbital symmetries:
       Occupied  (A) (A) (A) (A) (A) (A) (A) (A) (A) (A) (A) (A)
                 (A) (A) (A) (A) (A) (A) (A) (A) (A) (A) (A) (A)
                 (A) (A) (A) (A) (A) (A) (A) (A) (A) (A) (A) (A)
                 (A) (A) (A) (A) (A) (A) (A) (A) (A) (A) (A) (A)
                 (A) (A) (A)
       Virtual   (A) (A) (A) (A) (A) (A) (A) (A) (A) (A) (A) (A)
                 (A) (A) (A) (A) (A) (A) (A) (A) (A) (A) (A) (A)
                 (A) (A) (A) (A) (A) (A) (A) (A) (A) (A) (A) (A)
                 (A) (A) (A) (A) (A) (A) (A) (A) (A) (A) (A) (A)
                 (A) (A) (A) (A) (A) (A) (A) (A) (A) (A) (A) (A)
                 (A) (A) (A) (A) (A) (A) (A) (A) (A) (A) (A) (A)
                 (A) (A) (A) (A) (A) (A) (A) (A) (A) (A) (A) (A)
                 (A) (A) (A) (A) (A) (A) (A) (A) (A) (A) (A) (A)
                 (A) (A) (A) (A)
 The electronic state is 1-A.
 Alpha  occ. eigenvalues --  -19.05631 -19.03446 -18.99394 -14.27624 -10.25745
 Alpha  occ. eigenvalues --  -10.18585 -10.18460 -10.16344 -10.15416 -10.13038
 Alpha  occ. eigenvalues --  -10.10842 -10.09980 -10.09929  -1.07613  -1.01513
 Alpha  occ. eigenvalues --   -0.99260  -0.94077  -0.80859  -0.78045  -0.74010
 Alpha  occ. eigenvalues --   -0.68850  -0.68436  -0.65022  -0.60529  -0.57698
 Alpha  occ. eigenvalues --   -0.54561  -0.52878  -0.49425  -0.46599  -0.45184
 Alpha  occ. eigenvalues --   -0.44514  -0.44009  -0.43392  -0.42978  -0.41754
 Alpha  occ. eigenvalues --   -0.40859  -0.39647  -0.38871  -0.38075  -0.37202
 Alpha  occ. eigenvalues --   -0.36946  -0.36019  -0.35527  -0.33815  -0.33793
 Alpha  occ. eigenvalues --   -0.31983  -0.31718  -0.26577  -0.25956  -0.24261
 Alpha  occ. eigenvalues --   -0.22575
 Alpha virt. eigenvalues --    0.05890   0.08043   0.10165   0.11589   0.11997
 Alpha virt. eigenvalues --    0.13978   0.15016   0.16721   0.16983   0.17626
 Alpha virt. eigenvalues --    0.17781   0.18068   0.18676   0.19766   0.20057
 Alpha virt. eigenvalues --    0.20978   0.21473   0.21669   0.22114   0.23431
 Alpha virt. eigenvalues --    0.24135   0.24913   0.25583   0.27078   0.27383
 Alpha virt. eigenvalues --    0.27820   0.28496   0.29304   0.30466   0.42394
 Alpha virt. eigenvalues --    0.49615   0.64939   0.66013   0.66242   0.66609
 Alpha virt. eigenvalues --    0.68189   0.69257   0.69795   0.72635   0.74231
 Alpha virt. eigenvalues --    0.75451   0.75980   0.77055   0.77437   0.77893
 Alpha virt. eigenvalues --    0.80477   0.81484   0.83290   0.86331   0.87231
 Alpha virt. eigenvalues --    0.90288   0.92345   0.94339   0.95658   0.96411
 Alpha virt. eigenvalues --    0.97393   0.99006   1.00025   1.02111   1.04349
 Alpha virt. eigenvalues --    1.06403   1.06647   1.07514   1.08304   1.08677
 Alpha virt. eigenvalues --    1.10008   1.10571   1.11136   1.12011   1.13463
 Alpha virt. eigenvalues --    1.14728   1.16097   1.16352   1.18145   1.22017
 Alpha virt. eigenvalues --    1.28889   1.45451   1.53686   1.55586   1.57836
 Alpha virt. eigenvalues --    1.63584   1.63870   1.64965   1.71747   1.72626
 Alpha virt. eigenvalues --    1.73997   1.75636   1.81313   1.83614   1.96335
 Alpha virt. eigenvalues --    1.99132   1.99215   2.12390   2.14295   2.29585
 Alpha virt. eigenvalues --    2.35047   2.84456   3.09577   3.31604   3.41585
          Condensed to atoms (all electrons):
              1          2          3          4          5          6
     1  C    5.284069   0.289605   0.249046   0.249131   0.197332  -0.050365
     2  C    0.289605   5.353571  -0.082234  -0.081861  -0.039033   0.003852
     3  C    0.249046  -0.082234   5.476040  -0.084751  -0.036206  -0.007895
     4  C    0.249131  -0.081861  -0.084751   5.474383  -0.036128  -0.007960
     5  O    0.197332  -0.039033  -0.036206  -0.036128   8.329635   0.229209
     6  C   -0.050365   0.003852  -0.007895  -0.007960   0.229209   4.284438
     7  O    0.001363   0.000063  -0.009811  -0.009643  -0.045583   0.470901
     8  N    0.002810  -0.000045  -0.000285  -0.000293  -0.078789   0.198606
     9  C   -0.000137  -0.000045   0.000024   0.000030   0.009960  -0.030591
    10  C   -0.000004   0.000000   0.000000   0.000000   0.000285   0.003304
    11  C    0.000001   0.000000   0.000000   0.000000  -0.000024   0.005921
    12  C   -0.000071   0.000001   0.000004   0.000003   0.001511  -0.048014
    13  O    0.000000   0.000000   0.000000   0.000000   0.000000  -0.000008
    14  H    0.000000   0.000000   0.000000   0.000000   0.000000   0.000001
    15  H   -0.044608   0.350467   0.001242   0.001184   0.001903  -0.000039
    16  H   -0.038370   0.360219   0.004552  -0.003556   0.001990  -0.000003
    17  H   -0.038431   0.360240  -0.003584   0.004548   0.001979  -0.000007
    18  H   -0.035804  -0.000422   0.339957   0.000871   0.001572   0.000337
    19  H   -0.040253  -0.003177   0.357927   0.004354   0.001062   0.000461
    20  H   -0.036535   0.003580   0.342575  -0.004033  -0.003606   0.001951
    21  H   -0.035731  -0.000446   0.000846   0.340342   0.001573   0.000334
    22  H   -0.036500   0.003581  -0.004073   0.343163  -0.003616   0.001932
    23  H   -0.040237  -0.003180   0.004345   0.358253   0.001040   0.000477
    24  H   -0.000045   0.000022   0.000009  -0.000013   0.003608  -0.001380
    25  H   -0.000022   0.000007  -0.000010   0.000005   0.002018  -0.002180
    26  H    0.000000   0.000000   0.000000   0.000000   0.000000  -0.000020
    27  H    0.000000   0.000000   0.000000   0.000000   0.000001  -0.000135
    28  H    0.000000   0.000000   0.000000   0.000000   0.000000  -0.000153
    29  H    0.000001   0.000000   0.000000  -0.000001  -0.000003  -0.001301
    30  H    0.000001   0.000000  -0.000001   0.000001   0.000064   0.000939
              7          8          9         10         11         12
     1  C    0.001363   0.002810  -0.000137  -0.000004   0.000001  -0.000071
     2  C    0.000063  -0.000045  -0.000045   0.000000   0.000000   0.000001
     3  C   -0.009811  -0.000285   0.000024   0.000000   0.000000   0.000004
     4  C   -0.009643  -0.000293   0.000030   0.000000   0.000000   0.000003
     5  O   -0.045583  -0.078789   0.009960   0.000285  -0.000024   0.001511
     6  C    0.470901   0.198606  -0.030591   0.003304   0.005921  -0.048014
     7  O    8.141567  -0.069807   0.001150  -0.000028   0.000182   0.002586
     8  N   -0.069807   7.425209   0.230007  -0.050326  -0.052179   0.226589
     9  C    0.001150   0.230007   5.199709   0.195775  -0.067289  -0.065605
    10  C   -0.000028  -0.050326   0.195775   5.684811   0.185446  -0.112763
    11  C    0.000182  -0.052179  -0.067289   0.185446   5.269426   0.229794
    12  C    0.002586   0.226589  -0.065605  -0.112763   0.229794   5.288804
    13  O    0.000000   0.000518   0.001840  -0.045107   0.271763  -0.042750
    14  H    0.000000  -0.000079  -0.000044  -0.000726  -0.045351   0.006531
    15  H    0.000002   0.000000   0.000001   0.000000   0.000000   0.000000
    16  H    0.000001  -0.000006   0.000008   0.000000   0.000000   0.000000
    17  H    0.000001  -0.000006   0.000022   0.000000   0.000000   0.000000
    18  H    0.000088   0.000001   0.000000   0.000000   0.000000   0.000000
    19  H    0.000035  -0.000008   0.000002   0.000000   0.000000   0.000000
    20  H    0.024183   0.000143  -0.000011   0.000000   0.000000   0.000003
    21  H    0.000082   0.000001   0.000000   0.000000   0.000000   0.000000
    22  H    0.023722   0.000139  -0.000009   0.000000   0.000000   0.000003
    23  H    0.000034  -0.000007  -0.000001   0.000000   0.000000   0.000000
    24  H    0.000012  -0.037092   0.369824  -0.030157   0.003409   0.001800
    25  H    0.000013  -0.042273   0.365479  -0.040136  -0.000990   0.002691
    26  H    0.000000   0.002155  -0.032196   0.371597  -0.030361   0.004305
    27  H    0.000000   0.001518  -0.031664   0.345694  -0.042107  -0.002339
    28  H    0.000003   0.002924   0.007794  -0.072399   0.337893  -0.051544
    29  H    0.000317  -0.037033   0.003654  -0.005151  -0.048873   0.348683
    30  H    0.006195  -0.038219   0.002448   0.004546  -0.025527   0.366437
             13         14         15         16         17         18
     1  C    0.000000   0.000000  -0.044608  -0.038370  -0.038431  -0.035804
     2  C    0.000000   0.000000   0.350467   0.360219   0.360240  -0.000422
     3  C    0.000000   0.000000   0.001242   0.004552  -0.003584   0.339957
     4  C    0.000000   0.000000   0.001184  -0.003556   0.004548   0.000871
     5  O    0.000000   0.000000   0.001903   0.001990   0.001979   0.001572
     6  C   -0.000008   0.000001  -0.000039  -0.000003  -0.000007   0.000337
     7  O    0.000000   0.000000   0.000002   0.000001   0.000001   0.000088
     8  N    0.000518  -0.000079   0.000000  -0.000006  -0.000006   0.000001
     9  C    0.001840  -0.000044   0.000001   0.000008   0.000022   0.000000
    10  C   -0.045107  -0.000726   0.000000   0.000000   0.000000   0.000000
    11  C    0.271763  -0.045351   0.000000   0.000000   0.000000   0.000000
    12  C   -0.042750   0.006531   0.000000   0.000000   0.000000   0.000000
    13  O    8.135707   0.245775   0.000000   0.000000   0.000000   0.000000
    14  H    0.245775   0.460160   0.000000   0.000000   0.000000   0.000000
    15  H    0.000000   0.000000   0.549446  -0.023909  -0.023979   0.001659
    16  H    0.000000   0.000000  -0.023909   0.525515  -0.026011  -0.000083
    17  H    0.000000   0.000000  -0.023979  -0.026011   0.526209   0.000161
    18  H    0.000000   0.000000   0.001659  -0.000083   0.000161   0.554620
    19  H    0.000000   0.000000   0.000124  -0.000049   0.003779  -0.024770
    20  H    0.000000   0.000000   0.000012  -0.000085  -0.000045  -0.020552
    21  H    0.000000   0.000000   0.001658   0.000158  -0.000083   0.001171
    22  H    0.000000   0.000000   0.000010  -0.000047  -0.000085   0.000220
    23  H    0.000000   0.000000   0.000126   0.003763  -0.000048  -0.000069
    24  H   -0.000012   0.000000   0.000000   0.000094  -0.000014   0.000000
    25  H   -0.000014   0.000001   0.000000  -0.000010   0.000054   0.000000
    26  H    0.000588   0.001023   0.000000   0.000000   0.000000   0.000000
    27  H    0.004269  -0.000433   0.000000   0.000000   0.000000   0.000000
    28  H   -0.033866  -0.004563   0.000000   0.000000   0.000000   0.000000
    29  H    0.006728  -0.000283   0.000000   0.000000   0.000000   0.000000
    30  H    0.000976  -0.000116   0.000000   0.000000   0.000000   0.000000
             19         20         21         22         23         24
     1  C   -0.040253  -0.036535  -0.035731  -0.036500  -0.040237  -0.000045
     2  C   -0.003177   0.003580  -0.000446   0.003581  -0.003180   0.000022
     3  C    0.357927   0.342575   0.000846  -0.004073   0.004345   0.000009
     4  C    0.004354  -0.004033   0.340342   0.343163   0.358253  -0.000013
     5  O    0.001062  -0.003606   0.001573  -0.003616   0.001040   0.003608
     6  C    0.000461   0.001951   0.000334   0.001932   0.000477  -0.001380
     7  O    0.000035   0.024183   0.000082   0.023722   0.000034   0.000012
     8  N   -0.000008   0.000143   0.000001   0.000139  -0.000007  -0.037092
     9  C    0.000002  -0.000011   0.000000  -0.000009  -0.000001   0.369824
    10  C    0.000000   0.000000   0.000000   0.000000   0.000000  -0.030157
    11  C    0.000000   0.000000   0.000000   0.000000   0.000000   0.003409
    12  C    0.000000   0.000003   0.000000   0.000003   0.000000   0.001800
    13  O    0.000000   0.000000   0.000000   0.000000   0.000000  -0.000012
    14  H    0.000000   0.000000   0.000000   0.000000   0.000000   0.000000
    15  H    0.000124   0.000012   0.001658   0.000010   0.000126   0.000000
    16  H   -0.000049  -0.000085   0.000158  -0.000047   0.003763   0.000094
    17  H    0.003779  -0.000045  -0.000083  -0.000085  -0.000048  -0.000014
    18  H   -0.024770  -0.020552   0.001171   0.000220  -0.000069   0.000000
    19  H    0.537197  -0.023364  -0.000070   0.000009  -0.000098  -0.000001
    20  H   -0.023364   0.483137   0.000216   0.002904   0.000009  -0.000001
    21  H   -0.000070   0.000216   0.554342  -0.020775  -0.024726   0.000000
    22  H    0.000009   0.002904  -0.020775   0.482886  -0.023307   0.000004
    23  H   -0.000098   0.000009  -0.024726  -0.023307   0.535346   0.000016
    24  H   -0.000001  -0.000001   0.000000   0.000004   0.000016   0.512713
    25  H    0.000014   0.000004   0.000000  -0.000001   0.000000  -0.039301
    26  H    0.000000   0.000000   0.000000   0.000000   0.000000   0.000752
    27  H    0.000000   0.000000   0.000000   0.000000   0.000000  -0.004898
    28  H    0.000000   0.000000   0.000000   0.000000   0.000000  -0.000069
    29  H    0.000000  -0.000001   0.000000   0.000002   0.000000   0.000298
    30  H    0.000000   0.000010   0.000000  -0.000005   0.000000  -0.000114
             25         26         27         28         29         30
     1  C   -0.000022   0.000000   0.000000   0.000000   0.000001   0.000001
     2  C    0.000007   0.000000   0.000000   0.000000   0.000000   0.000000
     3  C   -0.000010   0.000000   0.000000   0.000000   0.000000  -0.000001
     4  C    0.000005   0.000000   0.000000   0.000000  -0.000001   0.000001
     5  O    0.002018   0.000000   0.000001   0.000000  -0.000003   0.000064
     6  C   -0.002180  -0.000020  -0.000135  -0.000153  -0.001301   0.000939
     7  O    0.000013   0.000000   0.000000   0.000003   0.000317   0.006195
     8  N   -0.042273   0.002155   0.001518   0.002924  -0.037033  -0.038219
     9  C    0.365479  -0.032196  -0.031664   0.007794   0.003654   0.002448
    10  C   -0.040136   0.371597   0.345694  -0.072399  -0.005151   0.004546
    11  C   -0.000990  -0.030361  -0.042107   0.337893  -0.048873  -0.025527
    12  C    0.002691   0.004305  -0.002339  -0.051544   0.348683   0.366437
    13  O   -0.000014   0.000588   0.004269  -0.033866   0.006728   0.000976
    14  H    0.000001   0.001023  -0.000433  -0.004563  -0.000283  -0.000116
    15  H    0.000000   0.000000   0.000000   0.000000   0.000000   0.000000
    16  H   -0.000010   0.000000   0.000000   0.000000   0.000000   0.000000
    17  H    0.000054   0.000000   0.000000   0.000000   0.000000   0.000000
    18  H    0.000000   0.000000   0.000000   0.000000   0.000000   0.000000
    19  H    0.000014   0.000000   0.000000   0.000000   0.000000   0.000000
    20  H    0.000004   0.000000   0.000000   0.000000  -0.000001   0.000010
    21  H    0.000000   0.000000   0.000000   0.000000   0.000000   0.000000
    22  H   -0.000001   0.000000   0.000000   0.000000   0.000002  -0.000005
    23  H    0.000000   0.000000   0.000000   0.000000   0.000000   0.000000
    24  H   -0.039301   0.000752  -0.004898  -0.000069   0.000298  -0.000114
    25  H    0.544908  -0.002291   0.003006   0.000774  -0.000209   0.000127
    26  H   -0.002291   0.522196  -0.025470  -0.004197  -0.000135  -0.000052
    27  H    0.003006  -0.025470   0.525410   0.005136   0.002581  -0.000041
    28  H    0.000774  -0.004197   0.005136   0.625574   0.004998  -0.004741
    29  H   -0.000209  -0.000135   0.002581   0.004998   0.533221  -0.033770
    30  H    0.000127  -0.000052  -0.000041  -0.004741  -0.033770   0.492623
 Mulliken charges:
              1
     1  C    0.123757
     2  C   -0.514765
     3  C   -0.547718
     4  C   -0.548028
     5  O   -0.541752
     6  C    0.947388
     7  O   -0.537627
     8  N   -0.684174
     9  C   -0.160133
    10  C   -0.434660
    11  C    0.008866
    12  C   -0.156658
    13  O   -0.546405
    14  H    0.338104
    15  H    0.184700
    16  H    0.195828
    17  H    0.195299
    18  H    0.181045
    19  H    0.186827
    20  H    0.229503
    21  H    0.181109
    22  H    0.229842
    23  H    0.188264
    24  H    0.220537
    25  H    0.208336
    26  H    0.192108
    27  H    0.219473
    28  H    0.186437
    29  H    0.226277
    30  H    0.228222
 Sum of Mulliken charges =   0.00000
 Mulliken charges with hydrogens summed into heavy atoms:
              1
     1  C    0.123757
     2  C    0.061062
     3  C    0.049657
     4  C    0.051187
     5  O   -0.541752
     6  C    0.947388
     7  O   -0.537627
     8  N   -0.684174
     9  C    0.268740
    10  C   -0.023080
    11  C    0.195303
    12  C    0.297841
    13  O   -0.208301
 Sum of Mulliken charges with hydrogens summed into heavy atoms =   0.00000
 APT charges:
              1
     1  C    0.653388
     2  C   -0.027692
     3  C   -0.107910
     4  C   -0.108020
     5  O   -0.968963
     6  C    1.443940
     7  O   -0.787982
     8  N   -0.866664
     9  C    0.351179
    10  C   -0.039895
    11  C    0.482550
    12  C    0.291590
    13  O   -0.516279
    14  H    0.211419
    15  H   -0.002134
    16  H    0.008197
    17  H    0.007549
    18  H   -0.001458
    19  H    0.000080
    20  H    0.080912
    21  H   -0.001577
    22  H    0.080721
    23  H    0.001146
    24  H   -0.018864
    25  H   -0.043401
    26  H   -0.013975
    27  H   -0.000246
    28  H   -0.087861
    29  H   -0.030669
    30  H    0.010921
 Sum of APT charges =   0.00000
 APT charges with hydrogens summed into heavy atoms:
              1
     1  C    0.653388
     2  C   -0.014081
     3  C   -0.028376
     4  C   -0.027729
     5  O   -0.968963
     6  C    1.443940
     7  O   -0.787982
     8  N   -0.866664
     9  C    0.288914
    10  C   -0.054117
    11  C    0.394688
    12  C    0.271841
    13  O   -0.304860
 Sum of APT charges with hydrogens summed into heavy atoms =   0.00000
 Electronic spatial extent (au):  <R**2>=           3317.9486
 Charge=              0.0000 electrons
 Dipole moment (field-independent basis, Debye):
    X=             -1.2811    Y=              3.4273    Z=              1.1304  Tot=              3.8296
 Quadrupole moment (field-independent basis, Debye-Ang):
   XX=            -66.4686   YY=            -83.5215   ZZ=            -77.8689
   XY=             -5.2211   XZ=             -4.8988   YZ=             -0.4248
 Traceless Quadrupole moment (field-independent basis, Debye-Ang):
   XX=              9.4844   YY=             -7.5685   ZZ=             -1.9159
   XY=             -5.2211   XZ=             -4.8988   YZ=             -0.4248
 Octapole moment (field-independent basis, Debye-Ang**2):
  XXX=            -41.8281  YYY=              6.5121  ZZZ=             -0.9070  XYY=             -9.7999
  XXY=             27.9562  XXZ=             23.5406  XZZ=             -7.5133  YZZ=             -0.9085
  YYZ=              0.7681  XYZ=              0.0753
 Hexadecapole moment (field-independent basis, Debye-Ang**3):
 XXXX=          -2990.2466 YYYY=           -612.6398 ZZZZ=           -284.3511 XXXY=           -139.4279
 XXXZ=           -113.5134 YYYX=             10.1903 YYYZ=             -0.5303 ZZZX=              0.5368
 ZZZY=              0.6421 XXYY=           -681.5450 XXZZ=           -614.0157 YYZZ=           -142.1202
 XXYZ=             -0.4053 YYXZ=             -2.2601 ZZXY=              5.0930
 N-N= 8.700335895777D+02 E-N=-3.209723643776D+03  KE= 6.248471444145D+02
  Exact polarizability: 134.104  -2.790  95.940   0.286   1.145  81.595
 Approx polarizability: 154.823  -5.324 147.541   2.114   3.327 112.546
 Calculating spin-rotation constants.
 Leave Link  601 at Wed Oct 19 23:08:37 2011, MaxMem=  128000000 cpu:      31.9
 (Enter /home/foresman/gdv/l701.exe)
 Compute integral second derivatives.
 ... and contract with generalized density number  0.
 Leave Link  701 at Wed Oct 19 23:08:38 2011, MaxMem=  128000000 cpu:       1.3
 (Enter /home/foresman/gdv/l702.exe)
 L702 exits ... SP integral derivatives will be done elsewhere.
 Leave Link  702 at Wed Oct 19 23:08:38 2011, MaxMem=  128000000 cpu:       0.3
 (Enter /home/foresman/gdv/l703.exe)
 Compute integral second derivatives, UseDBF=F ICtDFT=           0.
 Integral derivatives from FoFJK, PRISM(SPDF).
 Calling FoFJK, ICntrl=    100127 FMM=F ISym2X=0 I1Cent= 0 IOpClX= 0 NMat=1 NMatS=1 NMatT=0.
 FoFJK:  IHMeth= 1 ICntrl=  100127 DoSepK=F KAlg= 0 I1Cent=   0 FoldK=F
 IRaf=       0 NMat=   1 IRICut=       1 DoRegI=T DoRafI=F ISym2E= 0.
 FoFCou: FMM=F IPFlag=           0 FMFlag=      100000 FMFlg1=         800
         NFxFlg=           0 DoJE=F BraDBF=F KetDBF=F FulRan=T
         wScrn=  0.000000 ICntrl=  100127 IOpCl=  0 I1Cent=           0 NGrid=           0
         NMat0=    1 NMatS0=      1 NMatT0=    0 NMatD0=    1 NMtDS0=    0 NMtDT0=    0
 Symmetry not used in FoFCou.
 Leave Link  703 at Wed Oct 19 23:09:11 2011, MaxMem=  128000000 cpu:     266.6
 (Enter /home/foresman/gdv/l716.exe)
 Dipole        =-5.04036080D-01 1.34840960D+00 4.44744942D-01
 Polarizability= 1.34103614D+02-2.79012365D+00 9.59403141D+01
                 2.85659532D-01 1.14477049D+00 8.15947924D+01
 AAT           = 5.54095876D-03-1.85609582D-02-1.74557001D-01
                -3.92325666D-03 8.80539803D-04 3.93659385D-01
                 9.95640747D-02-3.73598633D-01-1.89385708D-03
                -2.45573920D-03-1.70822462D-03 1.54044529D-01
                 5.54454596D-03 4.28264438D-03-1.96503142D-01
                -1.03862654D-01 2.45930577D-02-2.41602172D-03
                 5.67350477D-02-1.80258921D-01-1.66228728D-01
                 1.45737194D-01-1.24990101D-01-1.98404890D-01
                 4.82402632D-02 1.94646366D-01 8.51819237D-02
                -5.20963530D-02 1.83275166D-01-1.57232976D-01
                -1.41004072D-01 1.20984620D-01-1.98513321D-01
                 4.14350934D-02 2.11676799D-01-9.03871360D-02
                -2.24951234D-03 3.48672724D-02 3.97846074D-01
                -5.47883904D-03 6.56391031D-03-2.48560591D-01
                -5.52088770D-01 4.55851989D-01 8.21211707D-03
                -3.64386205D-02-9.23973131D-02 6.60554798D-01
                 5.79455167D-02 2.18206057D-02-3.06971035D-01
                -2.18875087D-01-7.39643862D-02 3.57267362D-02
                -7.26783686D-03 3.71774554D-02-1.06068919D+00
                -6.42184847D-02-3.70778551D-02 1.66865721D-01
                 1.07773808D+00 2.15594814D-01 2.27833569D-02
                 3.50911389D-02 2.71016188D-02-2.83930445D-01
                -2.06797032D-02-5.89859656D-02 4.32086970D-01
                 3.21113870D-02-4.34488377D-01 3.24791887D-02
                -1.81077078D-02-5.18598446D-02-8.97548280D-02
                 8.97835822D-02 2.87094230D-02-3.07967607D-01
                -3.70528320D-02 2.50356232D-01-9.26608310D-02
                 1.31880563D-02 6.32558021D-02 2.55638849D-01
                 2.65839211D-02 1.29911945D-01 2.56375422D-01
                -1.50876989D-01-2.80625570D-02-9.25873678D-02
                -3.73378287D-02 9.92621645D-02 3.68770224D-02
                 2.07938836D-02-1.04552258D-01-7.22558439D-01
                -2.65609211D-02 5.85285258D-01 2.00440924D-01
                -1.56378280D-02 1.15566405D-01-3.59985336D-02
                -1.90831271D-02 1.60286100D-03-1.08673493D-01
                 6.34858342D-02 2.03591568D-01-1.90099461D-02
                 5.41970021D-02-2.20913966D-01 2.82090112D-01
                -7.74640786D-02 3.80837772D-01 1.13106224D+00
                 2.06501211D-01-1.14334363D+00-3.71558098D-01
                -5.03277768D-03 2.28305167D-01-3.69035175D-01
                -5.67682081D-02-3.06839866D-01-5.10865131D-01
                 2.47022280D-02 6.71234928D-01 3.32999304D-01
                -5.91821119D-03 7.69641984D-03 1.78291410D-01
                -5.66056318D-03 5.12102902D-04 2.24326625D-01
                 4.14683975D-02-2.77551288D-01 4.88214277D-03
                -4.95620634D-02-4.69920596D-02-7.29548172D-02
                 2.02881044D-01-1.23638863D-01-7.83879323D-02
                -2.59602974D-02 1.64723555D-01 2.20440821D-01
                 5.60485345D-02 3.59317144D-02-5.59239745D-02
                -1.97368878D-01 1.19749012D-01-7.62957586D-02
                -2.46391090D-02 1.78173972D-01-2.22067191D-01
                -2.37072686D-02-1.08125428D-01-2.07315976D-03
                -4.48478791D-02 1.35596545D-02 2.71565320D-01
                -3.70786791D-02-2.30179017D-01 1.11584542D-02
                -5.77366450D-02 6.87757106D-02-2.02043406D-02
                -6.64073868D-02 1.88125170D-01-2.58185747D-02
                 1.97521450D-01 2.17780028D-01-7.65536719D-02
                -3.88563043D-02 2.43319475D-02 2.09023126D-01
                 6.77318273D-02-6.05310264D-02-1.75673911D-01
                -2.12386865D-01-2.35904470D-02 1.21212814D-01
                 2.82505206D-02 1.28442763D-01 5.53286346D-03
                 3.58453003D-02-1.68453923D-02 2.74353490D-01
                -3.37001246D-02-2.24693242D-01-1.13757759D-02
                 3.32772149D-02-3.89192617D-02 2.12661015D-01
                -5.07123552D-02 7.07620930D-02-1.72832790D-01
                -2.04619650D-01-1.61621175D-02-1.27146572D-01
                 4.94473430D-02-8.57970863D-02-2.54487975D-02
                 6.26213331D-02-1.95106374D-01-3.19121067D-02
                 2.00533360D-01 2.01424924D-01 9.28256362D-02
                 5.70569431D-02-1.31846650D-01-4.71258971D-02
                 1.39757268D-01 2.13288601D-02 9.71499288D-02
                -4.67547342D-02-5.16208929D-02-1.49537572D-01
                -4.57694237D-02 1.48059739D-01-5.11635647D-02
                -1.54007713D-01-2.12483838D-04 4.88927563D-02
                -1.20494520D-01-7.82464034D-02 1.23495903D-01
                 4.30671178D-02 1.39089613D-01-2.15255594D-01
                -1.50801682D-01-8.87290333D-02 5.34772613D-04
                 7.02844995D-02 7.44808741D-02 7.55550711D-02
                -1.55841713D-02-2.47396131D-01 1.74468067D-04
                 1.73351327D-01-5.62312753D-02-1.07962915D-01
                -9.91850966D-02-1.26656623D-01 2.18926685D-02
                -9.81681153D-03 1.55405906D-02-1.86376258D-02
                -7.24512432D-02-4.13354134D-02 3.81197282D-02
                -9.41002105D-03-2.66800703D-01-2.40195467D-02
                -8.00634910D-04-2.12248431D-01 8.05105548D-02
                 1.66613243D-01 1.65243064D-02-1.02341922D-01
                 9.19411298D-02-1.06582367D-01 2.76688643D-02
                 4.63826917D-02 8.47327538D-02 1.47828622D-01
                -1.57853900D-01 3.93791538D-02 4.92128116D-02
                -4.43009898D-02-1.84168013D-02-1.38447190D-01
[...]
 -0.00000510,0.00002677,0.00001381,0.00008727,-0.00001327,-0.00002577,-
 0.00001700,0.00002871,0.08176622,0.10047017,-0.00026315,-0.00013224,0.
 00003374,0.00002497,0.00000603,-0.00008181,0.00003322,0.00015467,0.000
 01048,-0.00000236,0.00001114,0.00003266,-0.00178308,0.00059889,0.00013
 252,0.00298470,0.00247183,0.00140422,-0.00012200,-0.00085209,-0.000275
 15,0.00353627,-0.00496753,0.00084385,0.10756508,0.06298327,-0.13394324
 ,-0.01597662,-0.00716097,0.00907683,-0.00096549,-0.00264728,-0.0012814
 2,-0.00074219,-0.00019809,-0.00143798,-0.00132723,-0.00001183,-0.00020
 241,0.00012332,0.00013657,0.00001323,-0.00002637,0.00005600,0.00004402
 ,-0.00008505,-0.00010276,0.00008735,0.00000215,-0.00000809,-0.00008868
 ,-0.00003045,-0.00000103,0.00005851,0.00002975,-0.00000206,0.00000820,
 -0.00001294,0.00004479,0.00004635,-0.00001709,0.00002522,-0.00000493,-
 0.00000012,0.00006919,-0.00001383,0.00000253,-0.00002968,0.00003272,-0
 .11565559,-0.06520611,0.14205644,-0.00018967,-0.00045237,-0.00027514,0
 .00000589,0.00006908,0.00006052,-0.00000660,0.00013634,0.00003004,-0.0
 0001525,0.00009206,0.00007651,0.00164645,0.00037072,0.00076038,-0.0020
 3700,-0.00377829,-0.00307857,-0.00062550,0.00116243,0.00112342,-0.0172
 6933,0.01749533,-0.01647019,-0.08153242,0.02127352,-0.07825076,-0.0043
 6760,0.00390930,-0.01252820,0.00055871,0.00104883,-0.00063991,0.000302
 49,0.00219478,-0.00103793,-0.00026014,-0.00035217,0.00035684,0.0000065
 5,-0.00009331,-0.00010884,0.00002988,0.00002029,0.00000643,-0.00000279
 ,-0.00002000,0.00001088,0.00000678,-0.00001343,-0.00003219,0.00001828,
 0.00000111,0.00005843,0.00003920,-0.00001779,0.00002620,-0.00000599,-0
 .00006390,-0.00013183,0.00003049,0.00004377,-0.00001483,-0.00001139,-0
 .00010177,0.00001058,0.00001184,-0.00000707,-0.00000562,0.01004483,-0.
 00807483,0.02260643,0.09457309,-0.00008935,0.00015673,-0.00011404,-0.0
 0000721,-0.00011285,0.00006343,0.00003462,-0.00011303,-0.00003074,0.00
 005032,0.00007847,0.00008857,-0.00217893,0.00092426,-0.00075943,0.0040
 0961,0.00423459,0.00468752,0.00065507,-0.00163286,-0.00172560,0.018386
 88,-0.01536165,0.01351234,0.02111884,-0.06898478,0.06807349,-0.0092744
 7,0.00704969,-0.02586480,0.00089491,-0.00004889,-0.00066822,-0.0015815
 0,-0.00257497,0.00085412,-0.00080704,-0.00008153,0.00035998,0.00009878
 ,0.00008330,-0.00008080,-0.00002665,0.00005520,-0.00001833,0.00000440,
 -0.00002493,0.00001621,-0.00006374,0.00001057,-0.00011205,-0.00003946,
 0.00002539,-0.00003089,-0.00001606,0.00002121,-0.00007433,-0.00000022,
 0.00009071,0.00015061,-0.00003335,0.00002996,-0.00004630,0.00000930,0.
 00012697,-0.00000476,0.00002098,0.00000915,-0.00000584,0.00389266,-0.0
 0319143,0.01450581,-0.03306193,0.08037947,0.00001994,-0.00009281,-0.00
 023470,0.00000734,0.00004547,-0.00004537,0.00000980,-0.00003507,-0.000
 01249,0.00004770,0.00003118,0.00000706,0.00084484,-0.00054320,0.000358
 80,-0.00108072,-0.00052726,0.00058967,0.00051486,0.00020104,-0.0005343
 5,0.00258944,-0.00311515,0.01290917,-0.07851188,0.06994496,-0.25518147
 ,-0.00353917,0.00333715,-0.01365348,0.00027915,0.00033716,-0.00023063,
 0.00035622,-0.00045149,-0.00073593,-0.00044564,-0.00017431,0.00026123,
 0.00008520,0.00001280,-0.00009079,0.00001793,-0.00003408,0.00000680,-0
 .00000704,0.00002394,-0.00002454,0.00002218,-0.00000249,0.00008908,-0.
 00000351,-0.00000521,-0.00000557,-0.00000257,0.00000025,0.00003365,0.0
 0000404,-0.00000677,-0.00002465,0.00000431,0.00002045,0.00000753,0.000
 01298,-0.00004071,0.00000425,-0.00002319,-0.00001763,0.00000778,-0.006
 91030,0.00555611,-0.01839149,0.08743822,-0.07175636,0.27350195,0.00001
 421,-0.00001783,-0.00001988,0.00000082,0.00000541,0.00000452,-0.000005
 68,-0.00000010,-0.00000080,-0.00000201,0.00000833,0.00000305,0.0001604
 5,0.00003809,0.00003524,0.00057239,0.00004049,-0.00001272,0.00034997,-
 0.00026255,-0.00010007,-0.00199195,-0.00325806,-0.00156833,0.00750661,
 -0.01676354,0.00364318,-0.09024405,0.09541731,-0.02039902,-0.01092868,
 0.03177049,-0.00664411,-0.00555339,-0.00059057,0.00273298,0.00036906,-
 0.00163177,0.00005802,-0.00043338,-0.00058286,-0.00032940,0.00000182,0
 .00000229,0.00000021,0.00000180,-0.00000178,0.00000153,0.00000102,-0.0
 0000075,-0.00000349,0.00000416,0.00000135,0.00000010,-0.00000119,-0.00
 000053,-0.00000062,0.00000139,-0.00000501,0.00000123,0.00000367,0.0000
 0168,-0.00000004,0.00000362,-0.00000115,-0.00000329,-0.00000081,0.0000
 0058,-0.00000090,-0.00052843,-0.00016963,0.00020389,0.00101666,0.00081
 880,0.00026011,0.09803875,0.00020454,0.00031435,0.00017651,-0.00000733
 ,-0.00004915,-0.00001500,-0.00001700,-0.00007829,-0.00003467,-0.000019
 98,-0.00007556,-0.00003263,-0.00060825,-0.00037708,-0.00031385,0.00131
 267,0.00120044,0.00057973,0.00015395,-0.00094081,-0.00032947,-0.002003
 34,-0.00320289,-0.00206361,0.01126102,-0.01807000,0.00602732,0.0942737
 1,-0.26328686,0.04520380,-0.00281462,0.00049459,0.00026709,-0.00101631
 ,0.00038620,-0.00077127,0.00137312,0.00079006,0.00038463,0.00040044,-0
 .00017700,0.00007172,-0.00002406,-0.00000766,-0.00000973,0.00001482,0.
 00000338,0.00001028,0.00001038,0.00000988,-0.00000680,-0.00000806,-0.0
 0001858,-0.00003092,-0.00000345,0.00001388,0.00000203,-0.00000286,0.00
 003920,0.00006907,-0.00001635,-0.00003474,-0.00000062,0.00000605,0.000
 08177,-0.00001530,0.00000272,0.00001663,0.00000121,-0.00057808,-0.0007
 0529,-0.00026995,0.00012356,0.00143241,-0.00054112,-0.10437526,0.28636
 053,0.00004197,0.00008314,0.00004195,0.00000092,-0.00002115,0.00000016
 ,0.00000274,-0.00002850,-0.00000753,0.00000043,-0.00002047,-0.00000970
 ,-0.00020783,-0.00003478,-0.00010068,0.00101109,0.00002167,0.00024764,
 -0.00003413,-0.00057545,-0.00029546,-0.00020471,-0.00369725,-0.0010341
 0,0.00685975,-0.01306065,0.00151853,-0.02123433,0.04754584,-0.05970734
 ,0.00459312,-0.01101192,0.00082775,0.00166686,-0.00120273,-0.00095461,
 -0.00046357,-0.00003725,-0.00003132,-0.00027438,0.00010359,0.00026881,
 -0.00000772,0.00000134,-0.00000255,0.00000060,0.00000212,0.00000003,-0
 .00000177,0.00000195,-0.00000328,-0.00000410,-0.00000133,-0.00000945,-
 0.00000571,0.00000392,-0.00000420,-0.00000095,0.00001242,0.00002796,-0
 .00000491,-0.00000691,0.00000276,0.00000501,0.00002414,-0.00001051,-0.
 00000621,0.00000183,0.00000030,-0.00029019,-0.00010580,-0.00002017,0.0
 0042396,0.00022907,0.00057259,0.02230227,-0.04841407,0.06242755,0.0000
 6488,0.00006843,0.00005292,0.00000034,-0.00000013,-0.00002250,-0.00000
 832,-0.00001192,-0.00001057,-0.00000253,-0.00002837,-0.00002316,-0.000
 01994,-0.00016121,0.00007490,-0.00000466,0.00020831,-0.00005874,0.0000
 8832,-0.00013678,-0.00004004,-0.00009710,0.00029842,0.00023835,-0.0034
 7910,0.00223257,-0.02165167,-0.04614947,0.00409454,-0.00525896,-0.0049
 2992,-0.00602415,0.03862859,0.00114061,-0.00152570,-0.00011883,0.00565
 442,0.00067074,-0.00211915,-0.00043029,-0.00028362,0.00008667,-0.00000
 412,-0.00000915,0.00000133,0.00000052,0.00000302,0.00000248,0.00001189
 ,0.00000222,0.00001560,-0.00000096,-0.00000867,-0.00000579,0.00000001,
 0.00000195,0.00001317,-0.00000020,0.00000574,0.00001016,-0.00000211,-0
 .00001053,0.00000691,0.00000390,0.00001099,-0.00000167,-0.00000510,0.0
 0000002,0.00000500,0.00045224,0.00077878,0.00008967,-0.00075147,-0.003
 39448,-0.00153955,-0.00021748,0.00188883,-0.01380300,0.05504699,0.0000
 2892,0.00001609,0.00000001,0.00000183,0.00000444,-0.00001034,-0.000004
 82,-0.00000326,-0.00000126,0.00000042,-0.00001231,-0.00001609,0.000171
 77,-0.00014216,0.00009226,-0.00029410,-0.00029233,-0.00003827,0.000084
 61,0.00001782,-0.00000662,-0.00064753,0.00044789,0.00088522,-0.0014868
 9,0.00336344,-0.02710808,0.00481037,-0.06223246,0.04633928,-0.00089479
 ,-0.00032416,-0.00042881,-0.00014002,0.00061438,-0.00099641,0.00030440
 ,-0.00071632,-0.00060640,-0.00043052,-0.00020625,0.00059061,0.00000048
 ,-0.00000711,0.00000209,-0.00000270,0.00000476,-0.00000166,0.00001051,
 -0.00000091,0.00001647,0.00000103,-0.00000468,-0.00000122,0.00000115,-
 0.00000114,0.00001376,-0.00000051,-0.00000061,-0.00000433,0.00000320,-
 0.00000270,0.00001073,0.00000421,-0.00001035,-0.00000593,-0.00001313,-
 0.00000401,0.00000418,0.00043528,0.00145974,0.00033970,-0.00140915,-0.
 00291517,-0.00219502,-0.00077200,-0.00471133,0.03140779,0.00002003,0.0
 6503872,0.00005238,0.00008030,0.00001392,-0.00000208,-0.00000415,-0.00
 001343,-0.00000890,-0.00001416,-0.00000973,-0.00000045,-0.00002078,-0.
 00001367,0.00004194,-0.00017849,0.00003695,0.00002267,0.00005204,-0.00
 012497,0.00008197,-0.00016748,-0.00001710,0.00007936,-0.00049965,0.000
 74469,-0.00104652,0.00308863,-0.01391079,-0.00460425,0.04534260,-0.304
 49665,0.00093325,0.00314963,-0.01653519,-0.00057820,0.00032892,-0.0003
 4461,-0.00210591,-0.00010293,0.00288512,0.00033273,-0.00001435,-0.0002
 4854,-0.00000366,-0.00000965,-0.00000160,0.00000102,0.00000666,0.00000
 087,0.00001215,0.00000001,0.00001544,-0.00000259,-0.00001020,-0.000005
 99,0.00000485,-0.00000017,0.00001620,-0.00000159,0.00000918,0.00000558
 ,-0.00000096,-0.00000793,0.00000648,0.00000618,0.00000799,-0.00000827,
 -0.00001130,0.00000021,0.00000541,-0.00011663,-0.00003641,0.00137609,-
 0.00044360,-0.00196602,0.00032007,0.00035971,0.00066398,-0.00448993,0.
 00434391,-0.04804334,0.33382284,0.00001279,-0.00001317,0.00001325,-0.0
 0000054,0.00000206,0.00000710,0.00000394,-0.00000144,0.00000316,-0.000
 00348,-0.00000701,0.00000082,0.00006792,0.00002335,0.00003249,0.000186
 32,-0.00004354,-0.00011365,-0.00001902,-0.00010831,0.00001615,0.000419
 23,0.00030136,-0.00020968,0.00123736,0.00076086,0.00042878,-0.00493566
 ,-0.01131980,0.03207482,-0.05375800,-0.01305887,0.02565990,0.00124572,
 0.00499776,-0.00579083,-0.00518059,0.00619041,-0.03179888,0.00085727,0
 .00092354,0.00121978,0.00000170,-0.00000203,-0.00000213,0.00000268,0.0
 0000329,-0.00000229,-0.00000017,0.00000072,0.00000162,-0.00000146,-0.0
 0000005,-0.00000058,0.00000043,0.,-0.00000126,0.00000177,0.00000306,0.
 00000019,-0.00000130,-0.00000256,-0.00000084,-0.00000024,0.00000635,-0
 .00000322,0.00000030,0.00000281,-0.00000153,-0.00006334,0.00022202,-0.
 00026311,-0.00019030,-0.00018569,-0.00044908,0.00167401,0.00040158,-0.
 00078114,-0.00615577,-0.00024448,0.00208650,0.06448734,0.00001526,0.00
 010404,0.00010096,-0.00000249,-0.00002915,-0.00001565,0.00000134,-0.00
 002583,-0.00000971,-0.00000163,-0.00002183,-0.00001903,-0.00032913,-0.
 00018833,-0.00020350,0.00017185,0.00002830,0.00022894,-0.00018555,-0.0
 0001087,-0.00017772,0.00098301,0.00122903,-0.00146007,0.00053231,-0.00
 039724,0.00002674,0.00362074,0.00356244,-0.00456820,-0.01096195,-0.095
 18233,0.09130899,-0.00084458,-0.01737920,0.03271852,-0.00348655,0.0063
 3876,-0.01874572,0.00074724,0.00208000,-0.00037419,-0.00001273,-0.0000
 0152,-0.00000313,0.00000810,0.00000076,-0.00000054,-0.00000433,0.00000
 654,-0.00000329,0.00000002,0.00000152,-0.00001256,-0.00001659,0.000008
 54,-0.00001327,0.00000116,0.00000162,0.00003195,-0.00000777,-0.0000124
 8,-0.00000357,-0.00000030,0.00002467,0.00000930,0.00001168,0.00000737,
 -0.00000551,-0.00010408,0.00016589,0.00005111,-0.00034622,0.00005400,-
 0.00001597,-0.00103413,0.00055103,-0.00035751,0.00068803,0.00064603,-0
 .00087561,0.01063008,0.10263686,-0.00003934,-0.00008527,-0.00006696,0.
 00000269,0.00002041,0.00000319,-0.00000041,0.00003050,0.00000888,0.000
 00632,0.00001629,0.00001361,0.00013699,0.00018122,0.00019937,0.0002248
 1,-0.00012120,-0.00043806,-0.00011284,0.00012785,0.00011927,0.00072170
 ,0.00090548,0.00083635,0.00082048,0.00026937,-0.00101882,0.00273698,0.
 00643638,-0.01034606,0.02423264,0.09117194,-0.25086057,0.00073848,-0.0
 0254169,0.00250613,-0.01006294,0.00197911,-0.02270080,0.00038199,0.000
 03726,0.00054026,0.00000714,0.00000407,0.00000407,-0.00001109,-0.00000
 563,0.00000562,0.00000262,-0.00000592,-0.00000197,-0.00000222,-0.00000
 120,0.00001259,0.00001443,-0.00000730,0.00000975,-0.00000252,0.0000013
 1,-0.00001954,0.00000339,0.00001084,0.00000072,0.00000052,-0.00001105,
 -0.00000431,-0.00000744,-0.00000736,0.00000771,0.00018441,0.00025127,0
 .00040560,0.00043465,0.00023967,0.00036647,-0.00036279,-0.00071171,0.0
 0049456,0.00163203,-0.00037317,0.00036124,-0.02109463,-0.09686660,0.27
 774973,0.00028444,0.00054053,0.00065804,-0.00000994,-0.00011019,-0.000
 05717,-0.00001876,-0.00009249,-0.00002457,-0.00005767,-0.00020844,-0.0
 0012023,-0.00178944,-0.00132484,-0.00020960,-0.00050619,0.00705322,0.0
 0115611,0.00177389,-0.00189609,-0.00072677,-0.02117768,0.00153765,-0.0
 3049035,0.00015652,-0.00110126,-0.00248583,0.00047152,-0.00025855,-0.0
 0068592,-0.00104536,0.00287639,-0.00348457,-0.06389026,0.02485413,-0.0
 5352733,-0.00005035,-0.00142135,0.00051774,-0.00028425,-0.00022966,0.0
 0002063,-0.00005183,-0.00001578,-0.00002059,0.00001673,0.00001101,0.00
 000705,0.00002256,0.00001649,0.00001575,-0.00001337,-0.00002811,-0.000
 04835,-0.00001340,0.00002206,0.00001693,0.00001072,0.00006574,0.000111
 44,-0.00002397,-0.00008490,0.00004059,0.00001676,0.00011971,-0.0000415
 9,-0.00003098,0.00002044,0.00000877,-0.00012756,-0.00006219,-0.0001004
 0,-0.00093162,0.00073792,0.00009435,0.00001291,-0.00000779,0.00029079,
 -0.00011425,0.00043316,0.00043057,-0.00003380,-0.00023734,-0.00017612,
 0.07990491,0.00000251,0.00014440,0.00030721,-0.00000758,-0.00005418,-0
 .00001865,-0.00000595,0.00000408,0.00002206,-0.00004088,-0.00007831,-0
 .00003979,-0.00070977,-0.00079537,0.00009378,-0.00144266,0.00334624,-0
 .00008946,0.00139913,-0.00008952,0.00063321,-0.00853275,0.00483365,-0.
 01615074,0.00039394,-0.00095979,-0.00078689,-0.00140812,0.00110862,0.0
 0029398,0.00823144,-0.01785171,0.03530061,0.02469971,-0.07735499,0.075
 54121,0.00118414,0.00359959,0.00042329,-0.00015727,0.00137639,-0.00053
 165,-0.00002000,-0.00000174,-0.00000965,0.00000570,0.00000400,-0.00000
 104,0.00001075,0.00000340,0.00000751,0.00000418,-0.00000813,-0.0000037
 6,0.00000472,0.00000034,0.00001318,0.00001498,-0.00000262,-0.00002048,
 0.00000600,-0.00003058,0.00002349,-0.00000568,-0.00000947,-0.00002116,
 -0.00001468,0.00000525,0.00000185,-0.00000502,-0.00007116,-0.00005252,
 -0.00020469,0.00035385,0.00002650,-0.00000044,0.00004099,-0.00037942,0
 .00071971,0.00000873,-0.00063618,0.00086706,-0.00590330,-0.00132589,-0
 .02316400,0.08408099,0.00014275,0.00030887,0.00013935,-0.00000816,-0.0
 0004962,-0.00001462,-0.00002520,-0.00005588,-0.00001331,-0.00003016,-0
 .00007118,-0.00003144,-0.00053892,-0.00050486,-0.00042476,-0.00050976,
 0.00327472,0.00041586,0.00104711,-0.00073130,0.00034897,-0.00858445,-0
 .00432412,0.00092186,0.00056655,-0.00011982,-0.00142900,-0.00038522,-0
 .00023687,0.00031390,0.00078377,0.00037217,-0.00123692,-0.05417064,0.0
 7607451,-0.26436645,0.00035755,-0.00007147,0.00068586,0.00029072,-0.00
 043766,0.00035199,-0.00002214,-0.00000986,-0.00000797,0.00000308,0.000
 01023,0.00000595,0.00002054,0.00000102,0.00001413,-0.00001186,-0.00002
 318,-0.00002585,0.00001379,0.00000332,0.00002670,0.00000335,0.00005096
 ,0.00003291,0.00000102,-0.00002930,0.00001974,0.00001195,0.00004238,-0
 .00003602,-0.00002400,0.00000726,0.00000924,-0.00020194,0.00011212,0.0
 0001225,-0.00026679,0.00033928,0.00010186,-0.00010390,0.00007061,0.000
 08540,-0.00022198,-0.00000198,0.00030434,-0.00050713,-0.00040119,0.000
 87178,0.06769141,-0.08300976,0.28409144,0.00005306,0.00015245,-0.00007
 984,-0.00000782,-0.00002454,-0.00001092,-0.00002978,-0.00006601,-0.000
 02592,-0.00001328,0.00002162,-0.00001945,-0.00018637,-0.00053951,-0.00
 051757,-0.00335040,0.00599957,0.00319670,0.00388413,-0.00077213,-0.001
 08834,-0.02974205,0.00561096,0.01380282,-0.00185484,-0.00286685,0.0018
 9088,-0.00066172,-0.00076884,-0.00058518,0.00032253,-0.00041641,-0.000
 80939,-0.16473810,0.05036227,0.12145518,0.00035639,0.00043175,0.000295
 28,-0.00005516,0.00005814,0.00015710,-0.00001033,-0.00001065,-0.000006
 26,0.00002126,0.00001392,-0.00000821,0.00000277,0.00000278,0.00001100,
 0.00002269,0.00000248,-0.00003735,-0.00002265,0.00000798,-0.00000618,0
 .00000511,-0.00002736,-0.00000139,0.00000748,-0.00001743,0.00000581,0.
 00002291,-0.00002091,0.00001983,0.00000853,0.00001500,-0.00001099,-0.0
 0105181,0.00098581,0.00017126,-0.00009407,0.00002700,-0.00009594,0.000
 17375,0.00007537,0.00012513,-0.00009134,0.00002927,0.00013743,0.000144
 87,0.00016454,-0.00040991,0.00749973,-0.00182450,-0.00532134,0.1893845
 4,-0.00002894,-0.00003700,-0.00018315,-0.00000018,0.00001173,0.0000104
 2,-0.00004912,-0.00001771,-0.00002191,-0.00001421,0.00007896,0.0000137
 4,0.00032279,-0.00010217,-0.00054932,-0.00325255,0.00418107,0.00204083
 ,0.00269245,-0.00144323,-0.00085925,-0.01290387,0.00109230,0.00737749,
 -0.00091669,-0.00232172,-0.00014330,0.00118219,-0.00531968,0.00045777,
 0.02446532,-0.00737231,-0.02303374,0.05345961,-0.06921336,-0.05275959,
 -0.00085119,0.00040990,0.00112341,-0.00023959,-0.00014416,-0.00004741,
 0.00000593,0.00000418,0.00000417,-0.00000119,-0.00000107,0.00000183,0.
 00000388,-0.00000725,0.00000034,0.00000740,-0.00000291,-0.00001212,0.0
 0001457,-0.00000547,0.00000896,-0.00001405,-0.00000937,-0.00003579,0.0
 0003102,0.00001076,0.00000145,0.00001332,-0.00008540,0.00002666,0.0000
 1289,-0.00000242,-0.00000395,-0.00026047,0.00040334,0.00018802,0.00005
 579,-0.00007384,0.00001763,0.00136313,-0.00000012,-0.00048360,-0.00009
 764,-0.00003480,-0.00014265,-0.00034936,0.00170468,0.00038100,-0.00804
 546,0.00430035,0.00941058,-0.05660577,0.07399672,0.00004214,0.00003704
 ,-0.00004748,0.00000320,0.00000490,-0.00000162,-0.00000870,-0.00002698
 ,-0.00002391,0.00000952,0.00002353,-0.00000443,-0.00028290,0.00029519,
 -0.00033781,0.00050439,-0.00063363,0.00139829,-0.00098196,-0.00000303,
 -0.00117264,-0.00889055,0.00349026,0.01000053,-0.00181200,0.00000010,-
 0.00051462,-0.00096352,0.00018798,0.00057451,-0.00197330,0.00284174,-0
 .00006646,0.12751402,-0.05321569,-0.18508860,-0.00064017,-0.00058494,0
 .00035967,-0.00007345,-0.00016054,0.00005221,0.00000165,-0.00000225,0.
 00000142,0.00000112,0.00000175,-0.00000121,-0.00000176,-0.00000053,0.0
 0000249,0.00000353,0.00000228,-0.00001156,-0.00001329,0.00000447,-0.00
 000504,-0.00001198,-0.00001100,0.00001430,0.00000735,0.00000273,0.0000
 0103,0.00000610,-0.00003860,0.00000358,-0.00000259,-0.00000059,-0.0000
 0339,-0.00029542,0.00022116,0.00006605,-0.00013907,0.00013840,0.000027
 52,-0.00005666,0.00003274,0.00016482,-0.00032609,0.00013682,0.00030522
 ,-0.00052460,-0.00034396,0.00094017,0.02113922,-0.00961082,-0.02116720
 ,-0.13223425,0.05721147,0.19453416\\0.00000196,-0.00000309,-0.00000035
 ,-0.00000056,-0.00000127,0.00000086,0.00000061,-0.00000011,0.00000032,
 0.00000221,-0.00000046,-0.00000023,0.00000046,0.00000057,0.00000073,0.
 00000027,-0.00000114,-0.00000150,0.00000057,0.00000171,-0.00000041,-0.
 00000064,0.00000047,0.00000151,-0.00000068,0.00000067,0.00000040,-0.00
 000198,-0.00000055,-0.00000061,-0.00000103,0.00000099,-0.00000014,-0.0
 0000046,0.00000167,-0.00000097,-0.00000173,0.00000147,-0.00000035,-0.0
 0000173,0.00000263,-0.00000093,0.00000149,-0.00000206,0.00000102,0.000
 00118,-0.00000217,0.00000105,0.,-0.00000186,0.00000102,0.00000079,-0.0
 0000012,0.00000018,-0.00000030,0.00000001,-0.00000006,0.00000046,0.000
 00068,-0.00000037,0.00000232,-0.00000057,0.00000031,0.00000193,0.00000
 020,-0.00000011,0.00000221,-0.00000097,0.00000069,-0.00000047,-0.00000
 102,0.00000025,-0.00000146,-0.00000043,0.00000024,-0.00000191,0.000000
 05,0.00000046,-0.00000097,0.00000004,0.00000020,-0.00000238,0.00000127
 ,-0.00000097,0.00000023,0.00000133,-0.00000107,-0.00000039,0.00000204,
 -0.00000113\\\@
 The archive entry for this job was punched.


 I think that all right-thinking people in this
 country are sick and tired of being told that
 ordinary, decent people are fed up in this country
 with being sick and tired.  I'm certainly not!
 But I'm sick and tired of being told that I am!
                               -- Monty Python
 Job cpu time:  0 days  0 hours 16 minutes  2.0 seconds.
 File lengths (MBytes):  RWF=    113 Int=      0 D2E=      0 Chk=      3 Scr=      1
 Normal termination of Gaussian DV at Wed Oct 19 23:09:11 2011.
